# Probe 0 (0.23 1.01 0.9375)
# Probe 1 (0 1.01 0.84)
# Probe 2 (0 -0.2 0.75)
# Probe 3 (0 -0.2 1.025)
# Time        0             1             2             3            
30            9.05227e-09   3.47843e-06   3.85583e-17   9.21702e-16  
60            8.94198e-09   3.47158e-06   3.86568e-17   9.24024e-16  
90            1.40689e-08   3.64797e-06   4.36844e-17   9.1866e-16   
120           1.40689e-08   3.64797e-06   4.36844e-17   9.1866e-16   
150           1.40689e-08   3.64797e-06   4.36844e-17   9.1866e-16   
180           1.40689e-08   3.64797e-06   4.36844e-17   9.1866e-16   
210           1.40689e-08   3.64797e-06   4.36844e-17   9.1866e-16   
240           1.40689e-08   3.64797e-06   4.36844e-17   9.1866e-16   
270           1.40689e-08   3.64797e-06   4.36844e-17   9.1866e-16   
300           1.36582e-08   3.58839e-06   4.31734e-17   9.13618e-16  
330           8.81635e-05   0.0179503     2.12382e-19   3.18947e-18  
360           8.83584e-05   0.0176805     2.04038e-19   3.10298e-18  
390           1.1806e-06    0.00896639    4.6559e-17    7.91282e-16  
420           2.26024e-05   0.0468053     9.61267e-18   1.87841e-16  
450           3.65916e-08   3.8979e-06    2.64531e-15   2.29521e-14  
480           1.09e-08      3.37562e-06   2.78412e-15   2.18532e-14  
510           4.14738e-07   0.000114969   1.14392e-17   2.63369e-16  
540           3.04521e-09   3.19112e-06   5.88588e-16   6.52878e-15  
570           6.86464e-07   5.48407e-09   6.15034e-16   7.54978e-15  
600           1.23182e-08   3.22171e-06   9.18726e-17   1.58191e-15  
630           1.39577e-08   3.32213e-06   8.76688e-16   3.10395e-15  
660           3.37005e-09   6.80571e-08   2.25336e-05   3.9635e-05   
690           2.74468e-06   5.69282e-08   3.39098e-10   7.82896e-10  
720           8.0511e-09    3.30509e-06   6.22574e-15   3.87881e-14  
750           7.05572e-09   4.26959e-06   7.0867e-18    1.72054e-16  
780           1.09564e-08   4.61882e-06   1.60912e-13   2.21097e-13  
810           9.10082e-09   3.17058e-06   1.85723e-15   2.56631e-14  
840           3.81612e-08   4.76354e-06   2.31093e-16   2.42743e-15  
870           7.57398e-09   3.26993e-06   1.34405e-16   1.69308e-15  
900           8.96802e-09   3.17395e-06   2.19991e-15   2.89533e-14  
930           6.89636e-09   3.37131e-06   1.77347e-16   1.20443e-15  
960           6.7316e-09    3.32502e-06   1.70798e-16   1.17361e-15  
990           8.59185e-09   3.37789e-06   2.22259e-15   2.66118e-14  
1020          8.13997e-09   3.33232e-06   2.2221e-15    2.6578e-14   
1050          2.42867e-09   4.33466e-07   1.35774e-06   1.05291e-05  
1080          2.58656e-09   3.35654e-06   3.16125e-16   6.59956e-16  
1110          2.58656e-09   3.35654e-06   3.16125e-16   6.59956e-16  
1140          2.58656e-09   3.35654e-06   3.16125e-16   6.59956e-16  
1170          2.58656e-09   3.35654e-06   3.16125e-16   6.59956e-16  
1200          2.58656e-09   3.35654e-06   3.16125e-16   6.59956e-16  
