# Probe 0 (0.23 1.01 0.9375)
# Probe 1 (0 1.01 0.84)
# Probe 2 (0 -0.2 0.75)
# Probe 3 (0 -0.2 1.025)
# Time        0             1             2             3            
30            0.769999      0.769774      0.77          0.77         
60            0.769999      0.769784      0.77          0.77         
90            0.769999      0.769785      0.77          0.77         
120           0.769999      0.769784      0.77          0.77         
150           0.769999      0.769784      0.77          0.77         
180           0.769999      0.769784      0.77          0.77         
210           0.769999      0.769784      0.77          0.77         
240           0.769999      0.769784      0.77          0.77         
270           0.769999      0.769784      0.77          0.77         
300           0.769999      0.769787      0.77          0.77         
330           0.751649      0.611069      0.77          0.77         
360           0.751583      0.611908      0.77          0.77         
390           0.769871      0.723324      0.77          0.77         
420           0.767353      0.576831      0.76999       0.769989     
450           0.769677      0.769253      0.769768      0.769743     
480           0.769999      0.769812      0.77          0.77         
510           0.769564      0.765067      0.77          0.77         
540           0.769999      0.769813      0.77          0.77         
570           0.752085      0.769126      0.77          0.77         
600           0.769988      0.769802      0.769993      0.769992     
630           0.769995      0.769814      0.769998      0.769997     
660           0.765858      0.765231      0.723422      0.709606     
690           0.762781      0.764494      0.76732       0.767015     
720           0.769998      0.769811      0.77          0.769999     
750           0.767055      0.766876      0.767057      0.766946     
780           0.766419      0.76594       0.766566      0.766423     
810           0.767291      0.767176      0.767246      0.7671       
840           0.766196      0.765696      0.766414      0.766235     
870           0.767368      0.767243      0.767317      0.767146     
900           0.767397      0.76728       0.767351      0.767171     
930           0.767397      0.767271      0.767361      0.767173     
960           0.767452      0.767315      0.767401      0.767213     
990           0.767475      0.767355      0.767434      0.767242     
1020          0.767496      0.767352      0.767448      0.767259     
1050          0.762605      0.760987      0.736265      0.71047      
1080          0.765151      0.765014      0.765096      0.764921     
1110          0.765198      0.765049      0.765133      0.764945     
1140          0.76524       0.76509       0.765172      0.764973     
1170          0.765277      0.765126      0.765209      0.765001     
1200          0.76531       0.765158      0.765244      0.765029     
