# Probe 0 (0.23 1.01 0.9375)
# Probe 1 (0 1.01 0.84)
# Probe 2 (0 -0.2 0.75)
# Probe 3 (0 -0.2 1.025)
# Time        0             1             2             3            
30            0.229998      0.229718      0.23          0.23         
60            0.229999      0.229731      0.23          0.23         
90            0.229999      0.229734      0.23          0.23         
120           0.229999      0.229733      0.23          0.23         
150           0.229999      0.229733      0.23          0.23         
180           0.229999      0.229733      0.23          0.23         
210           0.229999      0.229733      0.23          0.23         
240           0.229999      0.229733      0.23          0.23         
270           0.229999      0.229733      0.23          0.23         
300           0.229999      0.229737      0.23          0.23         
330           0.206816      0.0422512     0.23          0.23         
360           0.206732      0.0431089     0.23          0.23         
390           0.229837      0.177549      0.23          0.23         
420           0.226673      0.0214188     0.229993      0.229992     
450           0.22972       0.229192      0.229814      0.229796     
480           0.229999      0.229769      0.23          0.23         
510           0.229447      0.223825      0.23          0.23         
540           0.229999      0.229769      0.23          0.23         
570           0.207309      0.22891       0.23          0.229999     
600           0.229992      0.229763      0.229996      0.229996     
630           0.229996      0.229772      0.229998      0.229998     
660           0.224815      0.223991      0.172144      0.153929     
690           0.221103      0.223255      0.22692       0.226587     
720           0.229998      0.229767      0.23          0.23         
750           0.229926      0.229641      0.229953      0.22995      
780           0.229251      0.228594      0.229484      0.229472     
810           0.229996      0.229766      0.229998      0.229998     
840           0.228889      0.228184      0.229262      0.229256     
870           0.229998      0.22975       0.23          0.23         
900           0.229997      0.22976       0.229999      0.229999     
930           0.229979      0.229733      0.229987      0.229986     
960           0.229999      0.22974       0.23          0.23         
990           0.229997      0.229765      0.229999      0.229999     
1020          0.229999      0.229736      0.23          0.23         
1050          0.226682      0.223191      0.193903      0.16033      
1080          0.229997      0.229729      0.229999      0.229999     
1110          0.229998      0.229708      0.23          0.23         
1140          0.229998      0.229704      0.23          0.23         
1170          0.229998      0.229703      0.23          0.23         
1200          0.229998      0.229703      0.23          0.23         
