# Probe 0 (0.23 1.01 0.9375)
# Probe 1 (0 1.01 0.84)
# Probe 2 (0 -0.2 0.75)
# Probe 3 (0 -0.2 1.025)
# Time        0             1             2             3            
30            101304        101306        101306        101305       
60            101304        101306        101306        101305       
90            101304        101306        101306        101305       
120           101304        101306        101306        101305       
150           101304        101306        101306        101305       
180           101304        101306        101306        101305       
210           101304        101306        101306        101305       
240           101304        101306        101306        101305       
270           101304        101306        101306        101305       
300           101304        101306        101306        101305       
330           101304        101306        101306        101305       
360           101304        101306        101306        101305       
390           101304        101306        101306        101305       
420           101304        101306        101306        101305       
450           101305        101307        101306        101306       
480           101304        101306        101306        101305       
510           101304        101306        101306        101305       
540           101304        101306        101306        101305       
570           101306        101306        101306        101306       
600           101304        101306        101306        101305       
630           101304        101306        101306        101305       
660           101306        101307        101307        101307       
690           101306        101306        101307        101306       
720           101304        101306        101306        101305       
750           101304        101306        101306        101306       
780           101305        101307        101307        101306       
810           101304        101306        101306        101306       
840           101305        101307        101306        101306       
870           101304        101306        101306        101306       
900           101304        101306        101306        101306       
930           101304        101306        101306        101306       
960           101304        101306        101306        101306       
990           101304        101306        101306        101306       
1020          101304        101306        101306        101306       
1050          101307        101307        101307        101307       
1080          101305        101307        101306        101306       
1110          101305        101307        101306        101306       
1140          101305        101307        101306        101306       
1170          101305        101307        101306        101306       
1200          101305        101307        101306        101306       
