# Probe 0 (0.23 1.01 0.9375)
# Probe 1 (0 1.01 0.84)
# Probe 2 (0 -0.2 0.75)
# Probe 3 (0 -0.2 1.025)
# Time        0             1             2             3            
30            4.51555       2038.24       2.77024e-09   6.68541e-08  
60            4.4693        2039.92       2.77772e-09   6.68758e-08  
90            7.02065       2140.35       3.13919e-09   6.64304e-08  
120           7.02484       2141.59       3.13977e-09   6.64553e-08  
150           7.02527       2141.66       3.13977e-09   6.6456e-08   
180           7.02527       2141.66       3.13974e-09   6.64556e-08  
210           7.02527       2141.66       3.13974e-09   6.64556e-08  
240           7.02527       2141.66       3.13974e-09   6.64556e-08  
270           7.02527       2141.66       3.13974e-09   6.64556e-08  
300           6.77929       2093.84       3.09419e-09   6.58345e-08  
330           26099.2       2.16225e+06   1.50784e-11   2.27343e-10  
360           26139.5       2.12846e+06   1.45023e-11   2.21345e-10  
390           578.464       2.01395e+06   3.34607e-09   5.71781e-08  
420           9743.73       4.40594e+06   6.73666e-10   1.30456e-08  
450           21.5233       2746.82       1.7109e-07    1.48597e-06  
480           5.43409       1988.07       2.01692e-07   1.57759e-06  
510           199.596       50822.7       8.09505e-10   1.8706e-08   
540           1.50638       1863.71       4.25141e-08   4.69474e-07  
570           208.417       1.32391       4.09455e-08   5.01907e-07  
600           6.08037       1877.49       6.61947e-09   1.12872e-07  
630           6.8905        1939.4        6.32988e-08   2.21731e-07  
660           1.84755       21.7344       1953.03       2843.02      
690           1254.08       13.5472       0.0163899     0.0381237    
720           3.99269       1932.65       4.50328e-07   2.79019e-06  
750           3.21938       2299.05       4.67231e-10   1.12393e-08  
780           7.18268       3547.53       9.81983e-06   1.35398e-05  
810           4.22175       1737.38       1.25961e-07   1.72165e-06  
840           23.2735       3376.05       1.42643e-08   1.50078e-07  
870           3.53654       1800.63       9.11876e-09   1.14192e-07  
900           4.15223       1733.05       1.49061e-07   1.9395e-06   
930           3.21417       1858.11       1.19297e-08   8.00092e-08  
960           3.14406       1828.7        1.15381e-08   7.91236e-08  
990           4.00244       1859.39       1.51101e-07   1.7871e-06   
1020          3.80239       1832.09       1.49885e-07   1.79153e-06  
1050          1.28794       137.864       111.412       680.94       
1080          1.14203       1744.23       2.0296e-08    4.21856e-08  
1110          1.1471        1748.02       2.01389e-08   4.21711e-08  
1140          1.14457       1743.58       2.00715e-08   4.2041e-08   
1170          1.1417        1739.35       2.00104e-08   4.19015e-08  
1200          1.13852       1734.53       1.99502e-08   4.17597e-08  
