# Probe 0 (0.23 1.01 0.9375)
# Probe 1 (0 1.01 0.84)
# Probe 2 (0 -0.2 0.75)
# Probe 3 (0 -0.2 1.025)
# Time        0             1             2             3            
30            293.011       296.43        292.991       292.991      
60            293.006       296.268       292.986       292.985      
90            293           296.237       292.98        292.979      
120           292.997       296.25        292.977       292.976      
150           292.997       296.25        292.977       292.976      
180           292.997       296.25        292.977       292.976      
210           292.997       296.25        292.977       292.976      
240           292.997       296.25        292.977       292.976      
270           292.997       296.25        292.977       292.976      
300           292.99        296.195       292.97        292.97       
330           558.266       1965.61       292.962       292.961      
360           559.196       1960.21       292.954       292.953      
390           295.001       869.058       292.946       292.945      
420           333.224       2057.68       293.047       293.064      
450           296.947       303.303       295.714       295.994      
480           292.942       295.764       292.923       292.919      
510           299.767       369.879       292.914       292.911      
540           292.923       295.739       292.906       292.902      
570           551.802       306.572       292.899       292.9        
600           293.025       295.844       292.963       292.964      
630           292.948       295.697       292.909       292.91       
660           355.195       367.326       927.347       1100.26      
690           401.048       379.351       330.868       335.01       
720           292.886       295.723       292.863       292.857      
750           313.006       316.142       312.818       313.592      
780           321.92        329.407       319.441       320.526      
810           311.437       313.753       311.747       312.836      
840           326.241       334.187       322.39        323.79       
870           311.359       313.846       311.739       313.093      
900           311.402       313.744       311.743       313.206      
930           311.741       314.188       311.986       313.546      
960           311.466       314.06        311.872       313.467      
990           311.535       313.826       311.876       313.531      
1020          311.604       314.254       312.013       313.692      
1050          366.685       406.075       733.795       1062.64      
1080          328.786       331.5         329.215       330.546      
1110          329.544       332.434       330.081       331.622      
1140          330.346       333.227       330.932       332.688      
1170          331.189       334.033       331.811       333.768      
1200          332.071       334.883       332.722       334.863      
