# Probe 0 (0.23 1.01 0.9375)
# Probe 1 (0 1.01 0.84)
# Probe 2 (0 -0.2 0.75)
# Probe 3 (0 -0.2 1.025)
# Time        0             1             2             3            
30            (0.685491 1.10215 0.585653) (0.0285049 1.09632 0.0049218) (-0.105215 1.57419 0.289935) (-0.156195 1.63976 0.571748)
60            (0.691878 1.10321 0.579603) (0.0289265 1.10615 -0.000424642) (-0.105037 1.57888 0.283888) (-0.154607 1.65068 0.558525)
90            (0.692993 1.1034 0.577622) (0.028969 1.10831 -0.00204831) (-0.104886 1.5794 0.28173) (-0.153922 1.65308 0.55374)
120           (0.692747 1.10305 0.577907) (0.0289646 1.10777 -0.00164829) (-0.104969 1.57986 0.282851) (-0.154135 1.65276 0.555648)
150           (0.692789 1.10316 0.577939) (0.028963 1.10782 -0.00167158) (-0.104961 1.57972 0.282713) (-0.154124 1.65269 0.555464)
180           (0.69275 1.10311 0.577928) (0.0289619 1.10777 -0.00166045) (-0.104961 1.57973 0.282745) (-0.154126 1.65268 0.555511)
210           (0.692757 1.10312 0.57793) (0.0289622 1.10778 -0.00166227) (-0.104961 1.57973 0.282741) (-0.154126 1.65268 0.555504)
240           (0.692756 1.10312 0.57793) (0.0289621 1.10778 -0.00166195) (-0.104961 1.57973 0.282741) (-0.154126 1.65268 0.555505)
270           (0.692757 1.10312 0.57793) (0.0289622 1.10778 -0.00166202) (-0.104961 1.57973 0.282741) (-0.154126 1.65268 0.555505)
300           (0.691379 1.09904 0.574032) (0.0289313 1.10555 -0.00306982) (-0.104494 1.5769 0.279428) (-0.152824 1.6519 0.548468)
330           (0.798335 1.28956 0.723973) (-0.193645 0.956289 -0.189655) (-0.101864 1.56396 0.276056) (-0.150521 1.6363 0.544252)
360           (0.796641 1.28766 0.724586) (-0.194171 0.951433 -0.188481) (-0.101904 1.56679 0.278428) (-0.150612 1.63869 0.546994)
390           (0.691717 1.09122 0.593381) (0.0623649 1.43026 -0.135851) (-0.103382 1.57529 0.28101) (-0.152343 1.6494 0.550539)
420           (0.695292 1.08398 0.584384) (0.00966277 1.67148 -0.295422) (-0.0996126 1.55225 0.271966) (-0.13993 1.63124 0.505817)
450           (0.571986 0.966622 0.553193) (0.0250388 0.933405 0.0295123) (-0.0893836 1.3473 0.237219) (-0.133594 1.43836 0.461443)
480           (0.714318 1.11024 0.563753) (0.0304931 1.14285 -0.0128911) (-0.105357 1.60347 0.278613) (-0.148986 1.68308 0.529643)
510           (0.68441 1.07713 0.578052) (0.0338143 1.09561 -0.0142645) (-0.103507 1.57117 0.277371) (-0.150333 1.64667 0.540976)
540           (0.712487 1.11125 0.566072) (0.0302138 1.14003 -0.0124024) (-0.104612 1.59331 0.270732) (-0.147499 1.67881 0.51708)
570           (0.0217057 0.449328 0.82087) (-0.0708794 -0.634647 0.0356379) (-0.0809499 1.41776 0.249258) (-0.128944 1.49601 0.518467)
600           (0.708992 1.09496 0.552893) (0.030675 1.13213 -0.0137657) (-0.104342 1.59378 0.276724) (-0.144395 1.67479 0.51253)
630           (0.712123 1.09399 0.551135) (0.0309404 1.13887 -0.0155563) (-0.104417 1.59872 0.275784) (-0.143632 1.68102 0.509156)
660           (0.0768026 0.556573 0.663647) (-0.146635 0.169922 0.00596655) (0.0331132 -0.525511 0.401266) (-0.02023 -1.08627 1.0348)
690           (0.0559651 0.540748 0.819495) (-0.152616 -0.248955 0.00204062) (-0.0451834 1.05703 0.30691) (-0.089874 1.10494 0.533151)
720           (0.705105 1.10331 0.559689) (0.0300282 1.13013 -0.0123347) (-0.104288 1.59562 0.275463) (-0.14709 1.67503 0.521332)
750           (0.677439 1.05503 0.55167) (0.0291826 1.08071 -0.00412939) (-0.101434 1.54723 0.269592) (-0.141415 1.6317 0.50427)
780           (0.601365 0.979487 0.56158) (0.028389 0.990966 0.0360483) (-0.0905621 1.36283 0.237976) (-0.137671 1.46054 0.470213)
810           (0.713275 1.09896 0.553227) (0.0310184 1.13982 -0.016903) (-0.104313 1.59438 0.271443) (-0.144697 1.68037 0.507632)
840           (0.612317 0.971365 0.566292) (0.0290972 0.993743 0.039414) (-0.0926326 1.42571 0.247151) (-0.138388 1.5228 0.48099)
870           (0.702343 1.09744 0.561256) (0.0299577 1.12268 -0.0107538) (-0.104533 1.59389 0.277781) (-0.148409 1.67612 0.529118)
900           (0.700395 1.08998 0.550597) (0.0303388 1.12163 -0.0150488) (-0.103542 1.59052 0.271792) (-0.144332 1.67517 0.508746)
930           (0.703327 1.08387 0.550932) (0.0305404 1.12398 -0.0134871) (-0.103444 1.57918 0.273826) (-0.143431 1.66544 0.509192)
960           (0.696373 1.09676 0.5666) (0.029472 1.11283 -0.00765777) (-0.104399 1.58418 0.277404) (-0.150563 1.66628 0.537635)
990           (0.713218 1.09667 0.552496) (0.0310759 1.13915 -0.0173139) (-0.104588 1.60289 0.272435) (-0.14481 1.6907 0.508764)
1020          (0.694346 1.09639 0.568741) (0.0293452 1.10932 -0.0063545) (-0.104399 1.58131 0.277834) (-0.15135 1.66297 0.541153)
1050          (0.0587163 0.729113 0.65034) (-0.129418 0.19404 0.00846613) (-0.0383975 0.486991 0.399953) (-0.000602144 -0.505325 1.04739)
1080          (0.694328 1.08853 0.562495) (0.0297165 1.10833 -0.0078554) (-0.104415 1.59187 0.280287) (-0.14897 1.67222 0.534883)
1110          (0.687184 1.09223 0.575721) (0.0290981 1.09612 -0.00153801) (-0.10452 1.57575 0.28103) (-0.15331 1.65398 0.551796)
1140          (0.684854 1.09027 0.576367) (0.0289865 1.09221 -0.000440711) (-0.104475 1.57386 0.28208) (-0.153641 1.65154 0.554547)
1170          (0.684383 1.0896 0.57615) (0.0289733 1.09144 -0.00043314) (-0.104406 1.57299 0.281763) (-0.153598 1.65123 0.554232)
1200          (0.68396 1.08881 0.575773) (0.0289691 1.09071 -0.000487559) (-0.104344 1.57239 0.281542) (-0.153529 1.65115 0.553915)
