1 	9.16995e+06 	1198 	0.120784 	0 	0.0268606 	0.427592
0.974747 	351733 	351.108 	0.00140308 	0 	0.2122 	0.598652
0.949495 	5520.9 	296.15 	4.02103e-05 	0 	0.409027 	0.517023
0.924242 	341.206 	293.336 	3.4501e-06 	0 	0.565011 	0.465501
0.89899 	32.3179 	293.029 	4.10607e-07 	0 	0.691391 	0.429973
0.873737 	3.73303 	292.988 	5.58604e-08 	0 	0.799226 	0.407005
0.848485 	0.489155 	292.982 	8.18916e-09 	0 	0.894864 	0.39253
0.823232 	0.0692364 	292.981 	1.25232e-09 	0 	0.981897 	0.38327
0.79798 	0.0101689 	292.981 	1.94287e-10 	0 	1.06242 	0.376998
0.772727 	0.00146953 	292.981 	2.92182e-11 	0 	1.13767 	0.372331
0.747475 	0.000206362 	292.981 	4.2236e-12 	0 	1.20841 	0.368464
0.722222 	2.78143e-05 	292.981 	5.80972e-13 	0 	1.27514 	0.364948
0.69697 	3.58823e-06 	292.981 	7.59379e-14 	4.85641e-34 	1.33814 	0.361542
0.671717 	4.3379e-07 	292.981 	9.24338e-15 	0 	1.39764 	0.358127
0.646465 	4.91663e-08 	292.981 	1.04917e-15 	0 	1.45375 	0.354647
0.621212 	5.32595e-09 	292.98 	1.13291e-16 	0 	1.50656 	0.351086
0.59596 	6.02789e-10 	292.98 	1.27304e-17 	0 	1.55613 	0.347445
0.570707 	1.2882e-10 	292.98 	2.68987e-18 	0 	1.60249 	0.343737
0.545455 	9.3899e-11 	292.98 	1.93453e-18 	0 	1.64565 	0.339977
0.520202 	1.039e-10 	292.98 	2.11138e-18 	0 	1.68564 	0.336185
0.494949 	1.19914e-10 	292.98 	2.40278e-18 	0 	1.72246 	0.33238
0.469697 	1.3824e-10 	292.98 	2.73139e-18 	0 	1.75611 	0.328579
0.444444 	1.58964e-10 	292.98 	3.09808e-18 	0 	1.78661 	0.324799
0.419192 	1.82474e-10 	292.98 	3.50963e-18 	7.43624e-36 	1.81396 	0.321055
0.393939 	2.07618e-10 	292.98 	3.94299e-18 	0 	1.83817 	0.31736
0.368687 	2.35075e-10 	292.98 	4.41044e-18 	0 	1.85924 	0.313726
0.343434 	2.65202e-10 	292.98 	4.91753e-18 	0 	1.87719 	0.310165
0.318182 	2.98116e-10 	292.98 	5.46485e-18 	0 	1.89203 	0.306684
0.292929 	3.34013e-10 	292.98 	6.05416e-18 	0 	1.90378 	0.303291
0.267677 	3.73156e-10 	292.98 	6.68815e-18 	0 	1.91245 	0.299991
0.242424 	4.15838e-10 	292.98 	7.36963e-18 	0 	1.91807 	0.296789
0.217172 	4.63537e-10 	292.98 	8.12178e-18 	0 	1.92066 	0.293685
0.191919 	5.16753e-10 	292.98 	8.9495e-18 	0 	1.92025 	0.290682
0.166667 	5.7417e-10 	292.98 	9.82576e-18 	0 	1.91687 	0.287777
0.141414 	6.39676e-10 	292.98 	1.08122e-17 	0 	1.91057 	0.284966
0.116162 	7.1226e-10 	292.98 	1.18854e-17 	0 	1.90141 	0.282244
0.0909091 	7.91912e-10 	292.98 	1.30384e-17 	0 	1.88945 	0.279597
0.0656566 	8.82941e-10 	292.98 	1.43347e-17 	0 	1.87481 	0.277009
0.040404 	9.90781e-10 	292.98 	1.58514e-17 	0 	1.85757 	0.274477
0.0151515 	1.1272e-09 	292.98 	1.77596e-17 	0 	1.83699 	0.272177
-0.010101 	1.26512e-09 	292.98 	1.96317e-17 	0 	1.81221 	0.270283
-0.0353535 	1.40295e-09 	292.98 	2.14811e-17 	0 	1.78448 	0.268533
-0.0606061 	1.55038e-09 	292.98 	2.33861e-17 	0 	1.75522 	0.267086
-0.0858586 	1.68846e-09 	292.98 	2.50976e-17 	0 	1.72465 	0.265419
-0.111111 	1.87051e-09 	292.98 	2.72248e-17 	0 	1.68841 	0.263371
-0.136364 	2.03667e-09 	292.98 	2.9134e-17 	0 	1.64706 	0.261377
-0.161616 	2.22151e-09 	292.98 	3.12595e-17 	0 	1.60481 	0.259575
-0.186869 	2.4294e-09 	292.98 	3.36518e-17 	0 	1.56145 	0.258011
-0.212121 	2.56906e-09 	292.98 	3.50341e-17 	0 	1.51605 	0.256404
-0.237374 	2.60866e-09 	292.98 	3.50606e-17 	0 	1.46601 	0.254628
-0.262626 	2.64826e-09 	292.98 	3.50871e-17 	0 	1.41597 	0.252852
-0.287879 	2.6985e-09 	292.98 	3.52532e-17 	0 	1.36582 	0.251099
-0.313131 	2.77667e-09 	292.98 	3.55645e-17 	0 	1.30706 	0.249353
-0.338384 	2.62159e-09 	292.98 	3.30861e-17 	0 	1.24142 	0.246992
-0.363636 	2.46651e-09 	292.98 	3.06077e-17 	0 	1.17579 	0.244631
-0.388889 	2.31143e-09 	292.98 	2.81294e-17 	0 	1.11015 	0.242269
-0.414141 	2.06929e-09 	292.981 	2.44867e-17 	0 	1.03808 	0.239739
-0.439394 	1.90568e-09 	292.981 	2.22541e-17 	0 	0.95977 	0.236782
-0.464646 	1.74208e-09 	292.981 	2.00216e-17 	0 	0.881464 	0.233825
-0.489899 	1.57848e-09 	292.981 	1.7789e-17 	0 	0.803158 	0.230867
-0.515152 	1.34224e-09 	292.981 	1.47003e-17 	0 	0.719264 	0.227887
-0.540404 	1.2094e-09 	292.981 	1.30874e-17 	0 	0.630277 	0.224282
-0.565657 	1.07656e-09 	292.981 	1.14744e-17 	0 	0.541291 	0.220677
-0.590909 	9.43719e-10 	292.981 	9.86141e-18 	0 	0.452304 	0.217071
-0.616162 	7.58971e-10 	292.981 	7.71218e-18 	0 	0.354506 	0.212989
-0.641414 	6.63878e-10 	292.981 	6.68941e-18 	0 	0.249435 	0.208099
-0.666667 	5.68785e-10 	292.981 	5.66664e-18 	0 	0.144363 	0.203209
-0.691919 	4.73692e-10 	292.981 	4.64387e-18 	0 	0.0392914 	0.198319
-0.717172 	3.50868e-10 	292.981 	3.36821e-18 	0 	-0.066814 	0.192871
-0.742424 	2.96144e-10 	292.981 	2.84201e-18 	0 	-0.174768 	0.186689
-0.767677 	2.41421e-10 	292.981 	2.31581e-18 	0 	-0.282722 	0.180508
-0.792929 	1.86698e-10 	292.981 	1.78961e-18 	0 	-0.390677 	0.174327
-0.818182 	1.25031e-10 	292.981 	1.20413e-18 	0 	-0.48766 	0.16875
-0.843434 	1.05623e-10 	292.981 	1.0272e-18 	0 	-0.578868 	0.162909
-0.868687 	8.6214e-11 	292.981 	8.5027e-19 	0 	-0.670076 	0.157067
-0.893939 	6.68054e-11 	292.981 	6.73338e-19 	0 	-0.761284 	0.151226
-0.919192 	4.56458e-11 	292.981 	4.78546e-19 	0 	-0.839713 	0.146781
-0.944444 	3.89671e-11 	292.981 	4.14735e-19 	0 	-0.911154 	0.142632
-0.969697 	3.22885e-11 	292.981 	3.50924e-19 	0 	-0.982595 	0.138483
-0.994949 	2.56098e-11 	292.981 	2.87113e-19 	0 	-1.05404 	0.134334
-1.0202 	1.85371e-11 	292.981 	2.18203e-19 	0 	-1.10354 	0.132597
-1.04545 	1.60128e-11 	292.981 	1.91816e-19 	0 	-1.141 	0.132189
-1.07071 	1.34885e-11 	292.981 	1.65428e-19 	0 	-1.17845 	0.131781
-1.09596 	1.09642e-11 	292.98 	1.39041e-19 	0 	-1.21591 	0.131374
-1.12121 	8.38656e-12 	292.981 	1.1111e-19 	0 	-1.22427 	0.134852
-1.14646 	7.3136e-12 	292.981 	9.81815e-20 	0 	-1.21723 	0.140684
-1.17172 	6.24064e-12 	292.981 	8.52525e-20 	0 	-1.21018 	0.146517
-1.19697 	5.16768e-12 	292.981 	7.23235e-20 	0 	-1.20314 	0.152349
-1.22222 	4.10888e-12 	292.981 	5.88078e-20 	0 	-1.16322 	0.161805
-1.24747 	3.5894e-12 	292.981 	5.13571e-20 	0 	-1.10693 	0.173587
-1.27273 	3.06991e-12 	292.981 	4.39065e-20 	0 	-1.05065 	0.185369
-1.29798 	2.55043e-12 	292.981 	3.64558e-20 	0 	-0.994365 	0.197151
-1.32323 	1.98125e-12 	292.981 	2.73525e-20 	0 	-0.906602 	0.211337
-1.34848 	1.72685e-12 	292.981 	2.2706e-20 	0 	-0.807141 	0.227248
-1.37374 	1.47246e-12 	292.981 	1.80595e-20 	0 	-0.707679 	0.243158
-1.39899 	1.21807e-12 	292.981 	1.3413e-20 	0 	-0.608218 	0.259068
-1.42424 	1.00485e-12 	292.981 	9.44112e-21 	0 	-0.483331 	0.279953
-1.44949 	8.17176e-13 	292.981 	5.94653e-21 	0 	-0.346626 	0.302904
-1.47475 	6.96495e-13 	292.981 	3.78538e-21 	0 	-0.216254 	0.248644
-1.5 	5.87187e-13 	292.982 	1.85157e-21 	0 	-0.0876284 	0.171256
