1 	9.06244e+06 	1194.37 	0.119043 	0 	0.0266386 	0.427528
0.974747 	338663 	350.428 	0.00134167 	0 	0.211641 	0.599409
0.949495 	5007.19 	296.114 	3.6461e-05 	0 	0.408253 	0.518221
0.924242 	296.726 	293.338 	3.0021e-06 	0 	0.563989 	0.466842
0.89899 	26.8424 	293.035 	3.41095e-07 	0 	0.690215 	0.431415
0.873737 	2.91536 	292.994 	4.36233e-08 	0 	0.797957 	0.408517
0.848485 	0.353154 	292.988 	5.91216e-09 	0 	0.893534 	0.394089
0.823232 	0.0456474 	292.987 	8.25723e-10 	0 	0.980525 	0.38486
0.79798 	0.00611178 	292.987 	1.16799e-10 	0 	1.06101 	0.37861
0.772727 	0.000812756 	292.987 	1.61657e-11 	0 	1.13624 	0.373959
0.747475 	0.000106453 	292.987 	2.17982e-12 	0 	1.20698 	0.370103
0.722222 	1.35775e-05 	292.987 	2.83768e-13 	0 	1.27369 	0.366595
0.69697 	1.67951e-06 	292.987 	3.5568e-14 	4.84708e-34 	1.3367 	0.363195
0.671717 	1.96442e-07 	292.987 	4.18908e-15 	0 	1.3962 	0.359784
0.646465 	2.16743e-08 	292.987 	4.62899e-16 	0 	1.45232 	0.356308
0.621212 	2.31374e-09 	292.986 	4.926e-17 	0 	1.50514 	0.352748
0.59596 	2.79445e-10 	292.986 	5.9061e-18 	0 	1.55472 	0.349108
0.570707 	8.35209e-11 	292.986 	1.74489e-18 	0 	1.6011 	0.3454
0.545455 	7.44788e-11 	292.986 	1.53575e-18 	0 	1.64428 	0.34164
0.520202 	8.48069e-11 	292.986 	1.725e-18 	0 	1.68429 	0.337847
0.494949 	9.84134e-11 	292.986 	1.97378e-18 	0 	1.72113 	0.33404
0.469697 	1.13829e-10 	292.986 	2.2511e-18 	0 	1.75481 	0.330239
0.444444 	1.31284e-10 	292.986 	2.56087e-18 	0 	1.78533 	0.326458
0.419192 	1.5112e-10 	292.986 	2.90905e-18 	7.36999e-36 	1.8127 	0.322713
0.393939 	1.72424e-10 	292.986 	3.27725e-18 	0 	1.83694 	0.319017
0.368687 	1.95764e-10 	292.986 	3.67578e-18 	0 	1.85804 	0.315385
0.343434 	2.21452e-10 	292.986 	4.10937e-18 	0 	1.87601 	0.311825
0.318182 	2.4959e-10 	292.986 	4.57861e-18 	0 	1.89088 	0.308346
0.292929 	2.80356e-10 	292.986 	5.08511e-18 	0 	1.90265 	0.304957
0.267677 	3.13981e-10 	292.986 	5.63126e-18 	0 	1.91135 	0.301662
0.242424 	3.50724e-10 	292.986 	6.21957e-18 	0 	1.91699 	0.298465
0.217172 	3.9181e-10 	292.986 	6.86913e-18 	0 	1.91961 	0.295368
0.191919 	4.37679e-10 	292.986 	7.58432e-18 	0 	1.91923 	0.292374
0.166667 	4.87295e-10 	292.986 	8.34351e-18 	0 	1.91588 	0.289478
0.141414 	5.43877e-10 	292.986 	9.19752e-18 	0 	1.90961 	0.286679
0.116162 	6.06662e-10 	292.986 	1.0128e-17 	0 	1.90047 	0.283969
0.0909091 	6.75813e-10 	292.986 	1.11317e-17 	0 	1.88854 	0.281336
0.0656566 	7.55041e-10 	292.986 	1.2263e-17 	0 	1.87393 	0.278763
0.040404 	8.49157e-10 	292.986 	1.35903e-17 	0 	1.85673 	0.276247
0.0151515 	9.68588e-10 	292.986 	1.52651e-17 	0 	1.83618 	0.273963
-0.010101 	1.08897e-09 	292.986 	1.69017e-17 	0 	1.81146 	0.272083
-0.0353535 	1.20951e-09 	292.986 	1.85233e-17 	0 	1.78378 	0.270347
-0.0606061 	1.33922e-09 	292.986 	2.02043e-17 	0 	1.75457 	0.26892
-0.0858586 	1.46083e-09 	292.986 	2.17179e-17 	0 	1.72405 	0.267275
-0.111111 	1.62396e-09 	292.986 	2.36327e-17 	0 	1.68786 	0.265256
-0.136364 	1.77123e-09 	292.986 	2.53351e-17 	0 	1.64655 	0.263293
-0.161616 	1.93511e-09 	292.986 	2.72292e-17 	0 	1.60436 	0.261522
-0.186869 	2.1195e-09 	292.986 	2.936e-17 	0 	1.56106 	0.259989
-0.212121 	2.24703e-09 	292.986 	3.06379e-17 	0 	1.51573 	0.258422
-0.237374 	2.28949e-09 	292.986 	3.07615e-17 	0 	1.46577 	0.256696
-0.262626 	2.33194e-09 	292.986 	3.08851e-17 	0 	1.41581 	0.25497
-0.287879 	2.38537e-09 	292.986 	3.11529e-17 	0 	1.36574 	0.253268
-0.313131 	2.48795e-09 	292.986 	3.18406e-17 	0 	1.30707 	0.251595
-0.338384 	2.36252e-09 	292.986 	2.9792e-17 	0 	1.24155 	0.249308
-0.363636 	2.23708e-09 	292.987 	2.77433e-17 	0 	1.17603 	0.247021
-0.388889 	2.11165e-09 	292.987 	2.56946e-17 	0 	1.1105 	0.244734
-0.414141 	1.90486e-09 	292.987 	2.25238e-17 	0 	1.03856 	0.242302
-0.439394 	1.76518e-09 	292.987 	2.05979e-17 	0 	0.960415 	0.239448
-0.464646 	1.6255e-09 	292.987 	1.86719e-17 	0 	0.882269 	0.236593
-0.489899 	1.48582e-09 	292.987 	1.6746e-17 	0 	0.804123 	0.233739
-0.515152 	1.27217e-09 	292.987 	1.39258e-17 	0 	0.72042 	0.230845
-0.540404 	1.1535e-09 	292.987 	1.24766e-17 	0 	0.631657 	0.227296
-0.565657 	1.03484e-09 	292.987 	1.10274e-17 	0 	0.542895 	0.223746
-0.590909 	9.16168e-10 	292.987 	9.57817e-18 	0 	0.454132 	0.220197
-0.616162 	7.40419e-10 	292.987 	7.5236e-18 	0 	0.356606 	0.216157
-0.641414 	6.51391e-10 	292.987 	6.56429e-18 	0 	0.251864 	0.211269
-0.666667 	5.62364e-10 	292.987 	5.60497e-18 	0 	0.147122 	0.20638
-0.691919 	4.73336e-10 	292.987 	4.64566e-18 	0 	0.0423803 	0.201492
-0.717172 	3.50811e-10 	292.987 	3.37057e-18 	0 	-0.0633356 	0.196135
-0.742424 	2.97787e-10 	292.987 	2.86031e-18 	0 	-0.170902 	0.19005
-0.767677 	2.44763e-10 	292.987 	2.35006e-18 	0 	-0.278468 	0.183966
-0.792929 	1.91739e-10 	292.987 	1.8398e-18 	0 	-0.386034 	0.177881
-0.818182 	1.2798e-10 	292.987 	1.23403e-18 	0 	-0.48266 	0.172445
-0.843434 	1.088e-10 	292.987 	1.05935e-18 	0 	-0.57358 	0.166729
-0.868687 	8.96211e-11 	292.987 	8.84665e-19 	0 	-0.6645 	0.161014
-0.893939 	7.04418e-11 	292.987 	7.09981e-19 	0 	-0.755419 	0.155299
-0.919192 	4.81058e-11 	292.987 	5.048e-19 	0 	-0.83364 	0.150959
-0.944444 	4.13665e-11 	292.987 	4.40732e-19 	0 	-0.904925 	0.146882
-0.969697 	3.46273e-11 	292.987 	3.76663e-19 	0 	-0.976211 	0.142806
-0.994949 	2.7888e-11 	292.987 	3.12595e-19 	0 	-1.0475 	0.13873
-1.0202 	2.02594e-11 	292.987 	2.38774e-19 	0 	-1.09694 	0.137065
-1.04545 	1.76365e-11 	292.987 	2.11582e-19 	0 	-1.13442 	0.136723
-1.07071 	1.50137e-11 	292.987 	1.84389e-19 	0 	-1.1719 	0.136382
-1.09596 	1.23908e-11 	292.987 	1.57197e-19 	0 	-1.20938 	0.13604
-1.12121 	9.52427e-12 	292.987 	1.26428e-19 	0 	-1.21791 	0.139573
-1.14646 	8.36648e-12 	292.987 	1.12561e-19 	0 	-1.21113 	0.145466
-1.17172 	7.20869e-12 	292.987 	9.86949e-20 	0 	-1.20436 	0.151359
-1.19697 	6.0509e-12 	292.987 	8.48285e-20 	0 	-1.19759 	0.157253
-1.22222 	4.82804e-12 	292.987 	6.92981e-20 	0 	-1.15801 	0.166753
-1.24747 	4.24566e-12 	292.987 	6.09187e-20 	0 	-1.10213 	0.178617
-1.27273 	3.66328e-12 	292.987 	5.25393e-20 	0 	-1.04626 	0.19048
-1.29798 	3.08089e-12 	292.987 	4.416e-20 	0 	-0.99038 	0.202344
-1.32323 	2.3739e-12 	292.987 	3.281e-20 	0 	-0.903114 	0.216647
-1.34848 	2.07805e-12 	292.987 	2.7341e-20 	0 	-0.804142 	0.232769
-1.37374 	1.7822e-12 	292.987 	2.1872e-20 	0 	-0.70517 	0.24889
-1.39899 	1.48635e-12 	292.987 	1.6403e-20 	0 	-0.606199 	0.265012
-1.42424 	1.23178e-12 	292.987 	1.15798e-20 	0 	-0.481846 	0.286309
-1.44949 	1.00714e-12 	292.987 	7.32875e-21 	0 	-0.345687 	0.309767
-1.47475 	8.62331e-13 	292.988 	4.68983e-21 	0 	-0.215716 	0.254273
-1.5 	7.29857e-13 	292.988 	2.29962e-21 	0 	-0.0874683 	0.17516
