1 	830000 	972.264 	0.976564 	0 	-4.22502 	0.256103
0.974747 	7.43636e+06 	1131.26 	0.785355 	0 	-3.61558 	0.777604
0.949495 	1.06739e+07 	1349.53 	0.551051 	0 	-2.67434 	1.01367
0.924242 	1.22049e+07 	1568.42 	0.305043 	0 	-1.48322 	0.935304
0.89899 	9.35879e+06 	1257.37 	0.0873354 	0 	-0.0921675 	0.390756
0.873737 	735433 	474.752 	0.00319712 	0 	0.49433 	0.0409983
0.848485 	20181.5 	312.067 	0.000147602 	0 	0.621597 	0.110014
0.823232 	1483.32 	295.873 	1.47035e-05 	0 	0.75707 	0.189215
0.79798 	142 	293.453 	1.77006e-06 	0 	0.879413 	0.240558
0.772727 	15.2186 	293.047 	2.26055e-07 	0 	0.9857 	0.272935
0.747475 	1.77374 	292.978 	2.98772e-08 	0 	1.07935 	0.293468
0.722222 	0.220078 	292.966 	4.04183e-09 	0 	1.16336 	0.306532
0.69697 	0.0287071 	292.964 	5.58319e-10 	5.84223e-34 	1.23977 	0.314766
0.671717 	0.00381377 	292.964 	7.69322e-11 	0 	1.30989 	0.31979
0.646465 	0.000508709 	292.964 	1.04812e-11 	0 	1.37458 	0.322612
0.621212 	6.77348e-05 	292.964 	1.40951e-12 	0 	1.43445 	0.323878
0.59596 	8.92955e-06 	292.963 	1.86119e-13 	0 	1.4899 	0.324015
0.570707 	1.172e-06 	292.963 	2.43186e-14 	0 	1.54124 	0.323316
0.545455 	1.50501e-07 	292.963 	3.09556e-15 	0 	1.58866 	0.321988
0.520202 	1.86482e-08 	292.963 	3.79123e-16 	0 	1.63233 	0.320185
0.494949 	2.29461e-09 	292.963 	4.60363e-17 	0 	1.67236 	0.318023
0.469697 	2.90902e-10 	292.963 	5.75692e-18 	0 	1.70885 	0.315593
0.444444 	4.32952e-11 	292.963 	8.4594e-19 	0 	1.74187 	0.312963
0.419192 	1.22324e-11 	292.963 	2.36559e-19 	9.00069e-36 	1.77148 	0.310189
0.393939 	8.32396e-12 	292.963 	1.59215e-19 	0 	1.79773 	0.307317
0.368687 	7.85784e-12 	292.963 	1.48493e-19 	0 	1.82067 	0.304385
0.343434 	7.82444e-12 	292.963 	1.46111e-19 	0 	1.84032 	0.301422
0.318182 	7.84562e-12 	292.963 	1.44824e-19 	0 	1.85673 	0.298455
0.292929 	7.87335e-12 	292.962 	1.43704e-19 	0 	1.86993 	0.295503
0.267677 	7.90232e-12 	292.962 	1.42633e-19 	0 	1.87996 	0.292583
0.242424 	7.93353e-12 	292.962 	1.4161e-19 	0 	1.88685 	0.289707
0.217172 	7.95615e-12 	292.962 	1.4043e-19 	0 	1.89064 	0.286885
0.191919 	7.97497e-12 	292.962 	1.39166e-19 	0 	1.89136 	0.284124
0.166667 	8.01456e-12 	292.962 	1.38231e-19 	0 	1.88905 	0.281429
0.141414 	8.05076e-12 	292.962 	1.37192e-19 	0 	1.88377 	0.278799
0.116162 	8.10743e-12 	292.962 	1.36437e-19 	0 	1.87557 	0.276232
0.0909091 	8.20661e-12 	292.962 	1.36312e-19 	0 	1.86453 	0.273718
0.0656566 	8.34649e-12 	292.962 	1.36753e-19 	0 	1.85077 	0.271245
0.040404 	8.54743e-12 	292.962 	1.38059e-19 	0 	1.83438 	0.26881
0.0151515 	8.86267e-12 	292.962 	1.41029e-19 	0 	1.81467 	0.26659
-0.010101 	9.20335e-12 	292.962 	1.44365e-19 	0 	1.79081 	0.26476
-0.0353535 	9.5886e-12 	292.962 	1.48424e-19 	0 	1.76401 	0.263068
-0.0606061 	9.99413e-12 	292.962 	1.52525e-19 	0 	1.73554 	0.261655
-0.0858586 	1.03511e-11 	292.962 	1.55741e-19 	0 	1.70572 	0.260019
-0.111111 	1.07742e-11 	292.962 	1.59004e-19 	0 	1.67035 	0.258006
-0.136364 	1.11742e-11 	292.963 	1.62051e-19 	0 	1.63001 	0.256033
-0.161616 	1.16622e-11 	292.963 	1.66326e-19 	0 	1.58863 	0.254252
-0.186869 	1.22589e-11 	292.963 	1.72117e-19 	0 	1.54597 	0.252708
-0.212121 	1.25569e-11 	292.963 	1.73646e-19 	0 	1.50128 	0.251118
-0.237374 	1.24716e-11 	292.963 	1.70102e-19 	0 	1.45197 	0.249345
-0.262626 	1.23863e-11 	292.963 	1.66558e-19 	0 	1.40267 	0.247572
-0.287879 	1.23333e-11 	292.963 	1.63439e-19 	0 	1.35325 	0.245821
-0.313131 	1.22264e-11 	292.963 	1.58993e-19 	0 	1.29536 	0.244036
-0.338384 	1.1378e-11 	292.963 	1.45801e-19 	0 	1.23071 	0.241653
-0.363636 	1.05297e-11 	292.963 	1.32608e-19 	0 	1.16606 	0.239269
-0.388889 	9.68131e-12 	292.963 	1.19415e-19 	0 	1.10141 	0.236885
-0.414141 	8.54926e-12 	292.963 	1.02686e-19 	0 	1.03034 	0.234333
-0.439394 	7.77989e-12 	292.963 	9.22024e-20 	0 	0.953048 	0.231364
-0.464646 	7.01053e-12 	292.963 	8.17184e-20 	0 	0.875757 	0.228396
-0.489899 	6.24117e-12 	292.963 	7.12344e-20 	0 	0.798466 	0.225427
-0.515152 	5.27297e-12 	292.963 	5.8573e-20 	0 	0.715599 	0.222381
-0.540404 	4.70877e-12 	292.963 	5.16635e-20 	0 	0.627646 	0.218689
-0.565657 	4.14457e-12 	292.963 	4.4754e-20 	0 	0.539692 	0.214996
-0.590909 	3.58037e-12 	292.963 	3.78446e-20 	0 	0.451739 	0.211304
-0.616162 	2.89214e-12 	292.963 	2.97785e-20 	0 	0.355062 	0.207103
-0.641414 	2.51589e-12 	292.963 	2.56759e-20 	0 	0.251208 	0.202085
-0.666667 	2.13965e-12 	292.963 	2.15733e-20 	0 	0.147354 	0.197066
-0.691919 	1.76341e-12 	292.963 	1.74707e-20 	0 	0.0435 	0.192047
-0.717172 	1.33994e-12 	292.963 	1.30271e-20 	0 	-0.0613974 	0.186538
-0.742424 	1.1331e-12 	292.963 	1.10167e-20 	0 	-0.168183 	0.18035
-0.767677 	9.26253e-13 	292.963 	9.00617e-21 	0 	-0.274969 	0.174161
-0.792929 	7.19409e-13 	292.963 	6.99569e-21 	0 	-0.381755 	0.167973
-0.818182 	5.20233e-13 	292.963 	5.09294e-21 	0 	-0.47776 	0.162379
-0.843434 	4.49001e-13 	292.963 	4.45175e-21 	0 	-0.568131 	0.156537
-0.868687 	3.77769e-13 	292.963 	3.81056e-21 	0 	-0.658502 	0.150694
-0.893939 	3.06538e-13 	292.963 	3.16938e-21 	0 	-0.748873 	0.144851
-0.919192 	2.39094e-13 	292.963 	2.55962e-21 	0 	-0.826616 	0.14036
-0.944444 	2.12292e-13 	292.963 	2.32001e-21 	0 	-0.897409 	0.136159
-0.969697 	1.8549e-13 	292.963 	2.08039e-21 	0 	-0.968203 	0.131957
-0.994949 	1.58688e-13 	292.963 	1.84078e-21 	0 	-1.039 	0.127755
-1.0202 	1.34196e-13 	292.963 	1.61997e-21 	0 	-1.08812 	0.125956
-1.04545 	1.2313e-13 	292.963 	1.52117e-21 	0 	-1.12533 	0.125482
-1.07071 	1.12064e-13 	292.963 	1.42236e-21 	0 	-1.16253 	0.125009
-1.09596 	1.00999e-13 	292.963 	1.32356e-21 	0 	-1.19974 	0.124535
-1.12121 	9.10967e-14 	292.963 	1.23258e-21 	0 	-1.20818 	0.127988
-1.14646 	8.59679e-14 	292.963 	1.18389e-21 	0 	-1.20134 	0.133797
-1.17172 	8.08391e-14 	292.963 	1.13519e-21 	0 	-1.19451 	0.139607
-1.19697 	7.57103e-14 	292.963 	1.0865e-21 	0 	-1.18768 	0.145417
-1.22222 	7.12629e-14 	292.963 	1.03054e-21 	0 	-1.14837 	0.154875
-1.24747 	6.86908e-14 	292.963 	9.86111e-22 	0 	-1.09285 	0.166641
-1.27273 	6.61187e-14 	292.963 	9.41679e-22 	0 	-1.03733 	0.178407
-1.29798 	6.35466e-14 	292.963 	8.97248e-22 	0 	-0.98181 	0.190173
-1.32323 	6.11555e-14 	292.964 	8.14188e-22 	0 	-0.895109 	0.204318
-1.34848 	6.01219e-14 	292.964 	7.46189e-22 	0 	-0.796808 	0.220122
-1.37374 	5.90884e-14 	292.964 	6.7819e-22 	0 	-0.698506 	0.235925
-1.39899 	5.80548e-14 	292.964 	6.10191e-22 	0 	-0.600204 	0.251729
-1.42424 	5.535e-14 	292.964 	4.8757e-22 	0 	-0.476239 	0.272431
-1.44949 	5.21794e-14 	292.964 	3.5317e-22 	0 	-0.340424 	0.295175
-1.47475 	4.91876e-14 	292.964 	2.48044e-22 	0 	-0.211647 	0.242468
-1.5 	4.61461e-14 	292.964 	1.46265e-22 	0 	-0.0847957 	0.167138
