y_m,Qdot_J_kg,T_K,batteryGasNMC,Ux,Uy,Uz,T_degree
1.0,9165630.0,1214.82,0.123256,0.0,0.0265127,0.421163,941.8199999999999
0.974747,355712.0,369.789,0.0014626,0.0,0.221325,0.596486,96.78899999999999
0.949495,5550.31,313.482,4.17649e-05,0.0,0.42502,0.512258,40.48200000000003
0.924242,348.331,310.749,3.65625e-06,0.0,0.585747,0.4578,37.749000000000024
0.89899,33.8624,310.528,4.48693e-07,0.0,0.715462,0.420095,37.52800000000002
0.873737,3.99961,310.551,6.25665e-08,0.0,0.825866,0.395622,37.55099999999999
0.848485,0.529024,310.599,9.26843e-09,0.0,0.923623,0.380139,37.59899999999999
0.823232,0.0749078,310.647,1.41897e-09,0.0,1.01247,0.370224,37.64699999999999
0.79798,0.0110341,310.691,2.2095e-10,0.0,1.09457,0.363545,37.690999999999974
0.772727,0.00162153,310.732,3.38145e-11,0.0,1.1712,0.358649,37.73200000000003
0.747475,0.00023824,310.771,5.11708e-12,0.0,1.24314,0.354683,37.771000000000015
0.722222,3.46857e-05,310.808,7.60612e-13,0.0,1.3109,0.351168,37.80799999999999
0.69697,4.99496e-06,310.843,1.10999e-13,5.06471e-34,1.37478,0.347842,37.84300000000002
0.671717,6.90627e-07,310.877,1.5453e-14,0.0,1.43501,0.344568,37.87700000000001
0.646465,9.93196e-08,310.909,2.22521e-15,0.0,1.49173,0.34128,37.90899999999999
0.621212,2.32354e-08,310.94,5.1852e-16,0.0,1.54503,0.33795,37.94
0.59596,1.48693e-08,310.969,3.29083e-16,0.0,1.59498,0.334572,37.968999999999994
0.570707,1.5133e-08,310.998,3.31333e-16,0.0,1.64162,0.331152,37.99799999999999
0.545455,1.65499e-08,311.026,3.57854e-16,0.0,1.68498,0.327699,38.02600000000001
0.520202,1.81679e-08,311.052,3.87552e-16,0.0,1.72508,0.324227,38.05200000000002
0.494949,1.98915e-08,311.078,4.18436e-16,0.0,1.76194,0.32075,38.077999999999975
0.469697,2.17052e-08,311.104,4.50295e-16,0.0,1.79557,0.317284,38.103999999999985
0.444444,2.36163e-08,311.128,4.83368e-16,0.0,1.82598,0.313839,38.127999999999986
0.419192,2.56285e-08,311.152,5.17791e-16,8.273959999999999e-36,1.85319,0.310427,38.15199999999999
0.393939,2.76843e-08,311.176,5.52424e-16,0.0,1.8772,0.307059,38.17599999999999
0.368687,2.98083e-08,311.198,5.87769e-16,0.0,1.89804,0.303745,38.19799999999998
0.343434,3.20079e-08,311.221,6.23926e-16,0.0,1.91572,0.300493,38.221000000000004
0.318182,3.42817e-08,311.243,6.60796e-16,0.0,1.93025,0.29731,38.242999999999995
0.292929,3.66303e-08,311.264,6.98306e-16,0.0,1.94165,0.294201,38.26400000000001
0.267677,3.90595e-08,311.285,7.36469e-16,0.0,1.94993,0.29117,38.285000000000025
0.242424,4.15767e-08,311.306,7.75318e-16,0.0,1.95514,0.28822,38.30599999999998
0.217172,4.42131e-08,311.326,8.15311e-16,0.0,1.95728,0.285353,38.32600000000002
0.191919,4.69779e-08,311.346,8.56468e-16,0.0,1.95639,0.282569,38.346000000000004
0.166667,4.98579e-08,311.366,8.98384e-16,0.0,1.9525,0.279865,38.365999999999985
0.141414,5.29271e-08,311.386,9.42196e-16,0.0,1.94565,0.277239,38.386000000000024
0.116162,5.6196e-08,311.406,9.87861e-16,0.0,1.93591,0.274686,38.406000000000006
0.0909091,5.97119e-08,311.426,1.03595e-15,0.0,1.92334,0.272195,38.42599999999999
0.0656566,6.36145e-08,311.446,1.08858e-15,0.0,1.90805,0.269754,38.446000000000026
0.040404,6.81341e-08,311.468,1.14928e-15,0.0,1.89011,0.267365,38.46800000000002
0.0151515,7.37984e-08,311.494,1.22628e-15,0.0,1.86867,0.265191,38.49400000000003
-0.010101,7.9315e-08,311.51,1.29894e-15,0.0,1.84285,0.263341,38.50999999999999
-0.0353535,8.49686e-08,311.53,1.37319e-15,0.0,1.81394,0.261618,38.52999999999997
-0.0606061,9.07645e-08,311.55,1.44588e-15,0.0,1.78357,0.260164,38.55000000000001
-0.0858586,9.60132e-08,311.569,1.50759e-15,0.0,1.75193,0.25849,38.56900000000002
-0.111111,1.02221e-07,311.582,1.57382e-15,0.0,1.71461,0.256409,38.581999999999994
-0.136364,1.08095e-07,311.602,1.63533e-15,0.0,1.67208,0.25444,38.601999999999975
-0.161616,1.14623e-07,311.621,1.70544e-15,0.0,1.6286,0.252638,38.62099999999998
-0.186869,1.21957e-07,311.64,1.78619e-15,0.0,1.58395,0.251042,38.639999999999986
-0.212121,1.2626e-07,311.657,1.82064e-15,0.0,1.53714,0.249378,38.65699999999998
-0.237374,1.26611e-07,311.672,1.79922e-15,0.0,1.48547,0.247531,38.672000000000025
-0.262626,1.26961e-07,311.688,1.7778e-15,0.0,1.4338,0.245684,38.68799999999999
-0.287879,1.27591e-07,311.703,1.76026e-15,0.0,1.38202,0.243856,38.702999999999975
-0.313131,1.27231e-07,311.716,1.72192e-15,0.0,1.32138,0.241924,38.71600000000001
-0.338384,1.19763e-07,311.73,1.59545e-15,0.0,1.2536,0.239555,38.73000000000002
-0.363636,1.12296e-07,311.743,1.46898e-15,0.0,1.18582,0.237186,38.742999999999995
-0.388889,1.04829e-07,311.757,1.34251e-15,0.0,1.11803,0.234817,38.757000000000005
-0.414141,9.46456e-08,311.77,1.18005e-15,0.0,1.04343,0.232164,38.76999999999998
-0.439394,8.71152e-08,311.782,1.07044e-15,0.0,0.962256,0.229212,38.78199999999998
-0.464646,7.95847e-08,311.794,9.60822e-16,0.0,0.881082,0.226261,38.79399999999998
-0.489899,7.20543e-08,311.806,8.51205e-16,0.0,0.799909,0.223309,38.80599999999998
-0.515152,6.24935e-08,311.817,7.18217e-16,0.0,0.712313,0.220437,38.81700000000001
-0.540404,5.63266e-08,311.827,6.38649e-16,0.0,0.619036,0.217305,38.827
-0.565657,5.01597e-08,311.837,5.59081e-16,0.0,0.525759,0.214174,38.83699999999999
-0.590909,4.39928e-08,311.847,4.79513e-16,0.0,0.432482,0.211042,38.84699999999998
-0.616162,3.6481e-08,311.854,3.87018e-16,0.0,0.329965,0.208081,38.853999999999985
-0.641414,3.19349e-08,311.859,3.35526e-16,0.0,0.219857,0.204947,38.85899999999998
-0.666667,2.73888e-08,311.863,2.84035e-16,0.0,0.109749,0.201813,38.863
-0.691919,2.28428e-08,311.868,2.32544e-16,0.0,-0.000359622,0.198679,38.867999999999995
-0.717172,1.77446e-08,311.867,1.77088e-16,0.0,-0.112194,0.194983,38.86700000000002
-0.742424,1.50658e-08,311.862,1.50343e-16,0.0,-0.225708,0.190738,38.86200000000002
-0.767677,1.2387e-08,311.857,1.23599e-16,0.0,-0.339222,0.186493,38.85700000000003
-0.792929,9.70822e-09,311.852,9.68541e-17,0.0,-0.452737,0.182248,38.851999999999975
-0.818182,7.07338e-09,311.842,7.10204e-17,0.0,-0.555607,0.17791,38.841999999999985
-0.843434,6.04545e-09,311.83,6.14459e-17,0.0,-0.652071,0.17334,38.829999999999984
-0.868687,5.01752e-09,311.817,5.18714e-17,0.0,-0.748535,0.16877,38.81700000000001
-0.893939,3.98959e-09,311.805,4.22969e-17,0.0,-0.844999,0.1642,38.80500000000001
-0.919192,3.01088e-09,311.789,3.31003e-17,0.0,-0.927693,0.16082,38.78899999999999
-0.944444,2.61615e-09,311.773,2.92909e-17,0.0,-1.00254,0.157881,38.773000000000025
-0.969697,2.22142e-09,311.758,2.54816e-17,0.0,-1.07739,0.154942,38.75799999999998
-0.994949,1.8267e-09,311.742,2.16723e-17,0.0,-1.15223,0.152003,38.74200000000002
-1.0202,1.45742e-09,311.724,1.80073e-17,0.0,-1.20341,0.151076,38.72399999999999
-1.04545,1.28863e-09,311.708,1.62238e-17,0.0,-1.24135,0.151209,38.70800000000003
-1.07071,1.11984e-09,311.691,1.44404e-17,0.0,-1.27928,0.151342,38.690999999999974
-1.09596,9.51051e-10,311.674,1.26569e-17,0.0,-1.31722,0.151475,38.67399999999998
-1.12121,7.92796e-10,311.655,1.08984e-17,0.0,-1.32333,0.154413,38.65499999999997
-1.14646,7.09415e-10,311.636,9.88163e-18,0.0,-1.31253,0.159019,38.636000000000024
-1.17172,6.26034e-10,311.617,8.8649e-18,0.0,-1.30173,0.163624,38.61700000000002
-1.19697,5.42653e-10,311.598,7.84817e-18,0.0,-1.29092,0.168229,38.59800000000001
-1.22222,4.64298e-10,311.572,6.796440000000001e-18,0.0,-1.24533,0.17558,38.572
-1.24747,4.1716e-10,311.545,6.0783e-18,0.0,-1.18259,0.184557,38.545000000000016
-1.27273,3.70022e-10,311.519,5.360150000000001e-18,0.0,-1.11984,0.193533,38.519000000000005
-1.29798,3.22884e-10,311.492,4.64201e-18,0.0,-1.0571,0.20251,38.49200000000002
-1.32323,2.73086e-10,311.456,3.7544300000000006e-18,0.0,-0.961194,0.213179,38.45600000000002
-1.34848,2.46323e-10,311.419,3.19996e-18,0.0,-0.853904,0.22484,38.41899999999998
-1.37374,2.19561e-10,311.382,2.64548e-18,0.0,-0.746615,0.236501,38.382000000000005
-1.39899,1.92798e-10,311.345,2.091e-18,0.0,-0.639326,0.248163,38.34500000000003
-1.42424,1.65732e-10,311.285,1.5378700000000001e-18,0.0,-0.506221,0.262402,38.285000000000025
-1.44949,1.39829e-10,311.219,1.01453e-18,0.0,-0.361105,0.277743,38.218999999999994
-1.47475,1.21759e-10,311.167,6.6784e-19,0.0,-0.224489,0.225368,38.16699999999997
-1.5,1.04976e-10,311.119,3.51442e-19,0.0,-0.0901221,0.152712,38.11900000000003
