y_m,Qdot_J_kg,T_K,batteryGasNMC,Ux,Uy,Uz,T_degree
1.0,9172560.0,1198.04,0.120784,0.0,0.0268847,0.427818,925.04
0.974747,351742.0,351.129,0.00140308,0.0,0.212081,0.598994,78.12900000000002
0.949495,5519.7,296.154,4.02103e-05,0.0,0.408835,0.517372,23.153999999999996
0.924242,341.188,293.334,3.4501e-06,0.0,0.564791,0.465872,20.334000000000003
0.89899,32.3217,293.027,4.10607e-07,0.0,0.691174,0.430362,20.026999999999987
0.873737,3.73379,292.985,5.58604e-08,0.0,0.799024,0.407408,19.985000000000014
0.848485,0.489264,292.98,8.18916e-09,0.0,0.894683,0.392945,19.980000000000018
0.823232,0.0692508,292.979,1.25232e-09,0.0,0.981741,0.383696,19.978999999999985
0.79798,0.0101707,292.978,1.94287e-10,0.0,1.06229,0.377434,19.97800000000001
0.772727,0.00146973,292.978,2.92182e-11,0.0,1.13757,0.37278,19.97800000000001
0.747475,0.000206381,292.978,4.2236e-12,0.0,1.20834,0.368925,19.97800000000001
0.722222,2.78154e-05,292.978,5.80972e-13,0.0,1.2751,0.365421,19.97800000000001
0.69697,3.58818e-06,292.978,7.59379e-14,4.857910000000001e-34,1.33814,0.362029,19.97800000000001
0.671717,4.33763e-07,292.978,9.24338e-15,0.0,1.39767,0.358627,19.97800000000001
0.646465,4.91612e-08,292.978,1.04917e-15,0.0,1.45381,0.355162,19.97800000000001
0.621212,5.32521e-09,292.978,1.13291e-16,0.0,1.50666,0.351615,19.97800000000001
0.59596,6.02689e-10,292.978,1.27304e-17,0.0,1.55626,0.347989,19.97800000000001
0.570707,1.28797e-10,292.978,2.6898700000000002e-18,0.0,1.60264,0.344296,19.97800000000001
0.545455,9.38819e-11,292.977,1.93453e-18,0.0,1.64584,0.340551,19.976999999999975
0.520202,1.03881e-10,292.977,2.1113800000000003e-18,0.0,1.68585,0.336775,19.976999999999975
0.494949,1.19895e-10,292.977,2.40278e-18,0.0,1.7227,0.332984,19.976999999999975
0.469697,1.3822e-10,292.977,2.7313900000000002e-18,0.0,1.75638,0.3292,19.976999999999975
0.444444,1.58943e-10,292.977,3.0980800000000002e-18,0.0,1.7869,0.325436,19.976999999999975
0.419192,1.82454e-10,292.977,3.50963e-18,7.42852e-36,1.81428,0.321707,19.976999999999975
0.393939,2.076e-10,292.977,3.94299e-18,0.0,1.8385,0.318028,19.976999999999975
0.368687,2.35058e-10,292.977,4.4104400000000005e-18,0.0,1.8596,0.314411,19.976999999999975
0.343434,2.65187e-10,292.977,4.91753e-18,0.0,1.87756,0.310866,19.976999999999975
0.318182,2.98104e-10,292.977,5.464850000000001e-18,0.0,1.89242,0.307403,19.976999999999975
0.292929,3.34004e-10,292.977,6.054160000000001e-18,0.0,1.90418,0.304027,19.976999999999975
0.267677,3.73152e-10,292.977,6.688150000000001e-18,0.0,1.91287,0.300744,19.976999999999975
0.242424,4.15839e-10,292.977,7.36963e-18,0.0,1.9185,0.297559,19.976999999999975
0.217172,4.63544e-10,292.977,8.12178e-18,0.0,1.9211,0.294473,19.976999999999975
0.191919,5.16767e-10,292.977,8.9495e-18,0.0,1.9207,0.291487,19.976999999999975
0.166667,5.74193e-10,292.977,9.825760000000002e-18,0.0,1.91733,0.2886,19.976999999999975
0.141414,6.39711e-10,292.977,1.08122e-17,0.0,1.91104,0.285808,19.976999999999975
0.116162,7.12307e-10,292.977,1.18854e-17,0.0,1.90188,0.283104,19.976999999999975
0.0909091,7.91975e-10,292.977,1.30384e-17,0.0,1.88992,0.280475,19.976999999999975
0.0656566,8.83023e-10,292.977,1.43347e-17,0.0,1.87529,0.277905,19.976999999999975
0.040404,9.90885e-10,292.977,1.58514e-17,0.0,1.85806,0.275392,19.976999999999975
0.0151515,1.12734e-09,292.977,1.77596e-17,0.0,1.83748,0.27311,19.976999999999975
-0.010101,1.26528e-09,292.977,1.96317e-17,0.0,1.81271,0.271229,19.976999999999975
-0.0353535,1.40314e-09,292.977,2.14811e-17,0.0,1.78498,0.269493,19.976999999999975
-0.0606061,1.55061e-09,292.977,2.33861e-17,0.0,1.75572,0.26806,19.976999999999975
-0.0858586,1.68872e-09,292.977,2.50976e-17,0.0,1.72516,0.266408,19.976999999999975
-0.111111,1.87082e-09,292.977,2.72248e-17,0.0,1.68892,0.264378,19.976999999999975
-0.136364,2.03701e-09,292.977,2.9134e-17,0.0,1.64757,0.262403,19.976999999999975
-0.161616,2.22188e-09,292.977,3.12595e-17,0.0,1.60532,0.26062,19.976999999999975
-0.186869,2.42982e-09,292.977,3.36518e-17,0.0,1.56197,0.259073,19.976999999999975
-0.212121,2.5695e-09,292.977,3.50341e-17,0.0,1.51658,0.257485,19.976999999999975
-0.237374,2.6091e-09,292.977,3.50606e-17,0.0,1.46655,0.255732,19.976999999999975
-0.262626,2.6487e-09,292.977,3.50871e-17,0.0,1.41652,0.253979,19.976999999999975
-0.287879,2.69894e-09,292.977,3.52532e-17,0.0,1.36638,0.252249,19.976999999999975
-0.313131,2.77714e-09,292.977,3.55645e-17,0.0,1.30763,0.250533,19.976999999999975
-0.338384,2.62202e-09,292.978,3.30861e-17,0.0,1.24201,0.248204,19.97800000000001
-0.363636,2.4669e-09,292.978,3.06077e-17,0.0,1.17639,0.245874,19.97800000000001
-0.388889,2.31177e-09,292.978,2.81294e-17,0.0,1.11078,0.243545,19.97800000000001
-0.414141,2.06956e-09,292.978,2.44867e-17,0.0,1.03873,0.241055,19.97800000000001
-0.439394,1.90592e-09,292.978,2.22541e-17,0.0,0.96045,0.238139,19.97800000000001
-0.464646,1.74228e-09,292.978,2.00216e-17,0.0,0.882175,0.235224,19.97800000000001
-0.489899,1.57864e-09,292.978,1.7789e-17,0.0,0.8039,0.232308,19.97800000000001
-0.515152,1.34233e-09,292.978,1.47003e-17,0.0,0.720045,0.229361,19.97800000000001
-0.540404,1.20947e-09,292.978,1.30874e-17,0.0,0.631108,0.225778,19.97800000000001
-0.565657,1.0766e-09,292.978,1.14744e-17,0.0,0.54217,0.222195,19.97800000000001
-0.590909,9.43732e-10,292.978,9.86141e-18,0.0,0.453233,0.218611,19.97800000000001
-0.616162,7.5894e-10,292.978,7.71218e-18,0.0,0.355493,0.214543,19.97800000000001
-0.641414,6.63843e-10,292.978,6.6894100000000005e-18,0.0,0.250495,0.209653,19.97800000000001
-0.666667,5.68745e-10,292.978,5.666640000000001e-18,0.0,0.145498,0.204763,19.97800000000001
-0.691919,4.73648e-10,292.978,4.6438700000000004e-18,0.0,0.0404998,0.199873,19.97800000000001
-0.717172,3.50814e-10,292.978,3.3682100000000004e-18,0.0,-0.0655143,0.194457,19.97800000000001
-0.742424,2.96101e-10,292.978,2.84201e-18,0.0,-0.173381,0.188313,19.97800000000001
-0.767677,2.41388e-10,292.978,2.31581e-18,0.0,-0.281248,0.182169,19.97800000000001
-0.792929,1.86675e-10,292.978,1.7896100000000002e-18,0.0,-0.389114,0.176025,19.97800000000001
-0.818182,1.25018e-10,292.978,1.2041300000000002e-18,0.0,-0.486017,0.1705,19.97800000000001
-0.843434,1.05614e-10,292.978,1.0272e-18,0.0,-0.577166,0.164708,19.97800000000001
-0.868687,8.62093e-11,292.978,8.502700000000001e-19,0.0,-0.668315,0.158916,19.97800000000001
-0.893939,6.68051e-11,292.978,6.73338e-19,0.0,-0.759465,0.153124,19.97800000000001
-0.919192,4.56491e-11,292.978,4.78546e-19,0.0,-0.83786,0.148716,19.97800000000001
-0.944444,3.89702e-11,292.978,4.14735e-19,0.0,-0.909283,0.144592,19.97800000000001
-0.969697,3.22912e-11,292.978,3.5092400000000003e-19,0.0,-0.980706,0.140467,19.97800000000001
-0.994949,2.56123e-11,292.978,2.87113e-19,0.0,-1.05213,0.136343,19.97800000000001
-1.0202,1.85386e-11,292.978,2.18203e-19,0.0,-1.10164,0.13463,19.97800000000001
-1.04545,1.60135e-11,292.978,1.91816e-19,0.0,-1.13913,0.134243,19.97800000000001
-1.07071,1.34884e-11,292.978,1.65428e-19,0.0,-1.17662,0.133855,19.97800000000001
-1.09596,1.09633e-11,292.978,1.39041e-19,0.0,-1.21411,0.133468,19.97800000000001
-1.12121,8.38489e-12,292.978,1.1111e-19,0.0,-1.22254,0.136959,19.97800000000001
-1.14646,7.31176e-12,292.978,9.818149999999999e-20,0.0,-1.21559,0.142803,19.97800000000001
-1.17172,6.23864e-12,292.978,8.52525e-20,0.0,-1.20864,0.148648,19.97800000000001
-1.19697,5.16551e-12,292.978,7.232349999999999e-20,0.0,-1.20169,0.154492,19.97800000000001
-1.22222,4.10665e-12,292.978,5.88078e-20,0.0,-1.16188,0.163952,19.97800000000001
-1.24747,3.58725e-12,292.978,5.1357099999999995e-20,0.0,-1.10571,0.175746,19.97800000000001
-1.27273,3.06786e-12,292.978,4.3906499999999993e-20,0.0,-1.04955,0.18754,19.97800000000001
-1.29798,2.54846e-12,292.978,3.6455799999999994e-20,0.0,-0.993384,0.199334,19.97800000000001
-1.32323,1.97954e-12,292.978,2.73525e-20,0.0,-0.905756,0.213548,19.97800000000001
-1.34848,1.72532e-12,292.978,2.2706e-20,0.0,-0.806423,0.229513,19.97800000000001
-1.37374,1.4711e-12,292.978,1.80595e-20,0.0,-0.70709,0.245478,19.97800000000001
-1.39899,1.21688e-12,292.978,1.3413e-20,0.0,-0.607758,0.261443,19.97800000000001
-1.42424,1.00404e-12,292.979,9.44112e-21,0.0,-0.483003,0.282445,19.978999999999985
-1.44949,8.16772e-13,292.979,5.9465299999999994e-21,0.0,-0.34643,0.305541,19.978999999999985
-1.47475,6.96384e-13,292.979,3.78538e-21,0.0,-0.216146,0.250785,19.978999999999985
-1.5,5.87357e-13,292.979,1.85157e-21,0.0,-0.087602,0.17272,19.978999999999985
