y_m,Qdot_J_kg,T_K,batteryGasNMC,Ux,Uy,Uz,T_degree
1.0,9599440.0,1227.99,0.113778,0.0,0.0283536,0.43176,954.99
0.974747,349654.0,396.163,0.00144493,0.0,0.209208,0.616352,123.16300000000001
0.949495,9507.97,333.652,8.04398e-05,0.0,0.380298,0.53197,60.65199999999999
0.924242,1153.66,327.65,1.34964e-05,0.0,0.51921,0.481248,54.64999999999998
0.89899,230.231,326.131,3.30692e-06,0.0,0.635556,0.445438,53.13099999999997
0.873737,59.0815,325.501,9.82698e-07,0.0,0.736788,0.420717,52.500999999999976
0.848485,17.9557,325.133,3.32487e-07,0.0,0.827189,0.403771,52.13299999999998
0.823232,6.18241,324.866,1.24033e-07,0.0,0.9093,0.391883,51.865999999999985
0.79798,2.32584,324.648,4.96084e-08,0.0,0.984748,0.383111,51.648000000000025
0.772727,0.924659,324.461,2.0687e-08,0.0,1.05465,0.376174,51.46100000000001
0.747475,0.381151,324.298,8.85335e-09,0.0,1.11981,0.370281,51.298
0.722222,0.160105,324.152,3.82983e-09,0.0,1.1808,0.364963,51.15199999999999
0.69697,0.0674588,324.02,1.65049e-09,4.40535e-34,1.23804,0.359956,51.01999999999998
0.671717,0.0277391,323.9,6.90101e-10,0.0,1.29183,0.355116,50.89999999999998
0.646465,0.0111441,323.791,2.80312e-10,0.0,1.34242,0.350366,50.791
0.621212,0.00437095,323.693,1.10572e-10,0.0,1.38996,0.345668,50.692999999999984
0.59596,0.00167014,323.602,4.22858e-11,0.0,1.43457,0.341005,50.601999999999975
0.570707,0.000623413,323.519,1.57293e-11,0.0,1.47632,0.336366,50.519000000000005
0.545455,0.00022281,323.44,5.5819e-12,0.0,1.51525,0.33175,50.44
0.520202,7.58174e-05,323.367,1.88012e-12,0.0,1.55139,0.327165,50.36700000000002
0.494949,2.48778e-05,323.299,6.09211e-13,0.0,1.58473,0.322618,50.29899999999998
0.469697,7.91983e-06,323.236,1.91214e-13,0.0,1.61528,0.318117,50.23599999999999
0.444444,2.46004e-06,323.176,5.85057e-14,0.0,1.64301,0.313665,50.17599999999999
0.419192,7.34667e-07,323.117,1.72036e-14,6.73815e-36,1.6679,0.309255,50.11700000000002
0.393939,2.1774e-07,323.062,5.02024e-15,0.0,1.68992,0.304898,50.06200000000001
0.368687,6.98414e-08,323.01,1.5857e-15,0.0,1.70905,0.3006,50.00999999999999
0.343434,2.82961e-08,322.961,6.32712e-16,0.0,1.72528,0.296365,49.96100000000001
0.318182,1.66541e-08,322.913,3.66881e-16,0.0,1.73859,0.292195,49.91300000000001
0.292929,1.32329e-08,322.867,2.87371e-16,0.0,1.74899,0.288093,49.86700000000002
0.267677,1.20714e-08,322.823,2.58539e-16,0.0,1.75645,0.284062,49.82299999999998
0.242424,1.15578e-08,322.78,2.44187e-16,0.0,1.76099,0.280107,49.77999999999997
0.217172,1.12297e-08,322.738,2.34051e-16,0.0,1.7626,0.276227,49.738
0.191919,1.09673e-08,322.696,2.25473e-16,0.0,1.7613,0.272424,49.696000000000026
0.166667,1.07863e-08,322.656,2.18702e-16,0.0,1.75711,0.268707,49.656000000000006
0.141414,1.0624e-08,322.616,2.12387e-16,0.0,1.75005,0.265075,49.615999999999985
0.116162,1.04894e-08,322.575,2.06663e-16,0.0,1.74016,0.261524,49.57499999999999
0.0909091,1.04216e-08,322.535,2.02266e-16,0.0,1.72748,0.258047,49.535000000000025
0.0656566,1.0399e-08,322.496,1.98709e-16,0.0,1.71211,0.254628,49.49599999999998
0.040404,1.04208e-08,322.454,1.95932e-16,0.0,1.69418,0.251251,49.45400000000001
0.0151515,1.05168e-08,322.41,1.94441e-16,0.0,1.67349,0.247989,49.410000000000025
-0.010101,1.07031e-08,322.363,1.94764e-16,0.0,1.64941,0.24525,49.363
-0.0353535,1.09321e-08,322.326,1.95992e-16,0.0,1.6226,0.242743,49.32600000000002
-0.0606061,1.11847e-08,322.298,1.97492e-16,0.0,1.59418,0.240519,49.298
-0.0858586,1.14078e-08,322.274,1.98345e-16,0.0,1.56414,0.238189,49.274
-0.111111,1.16732e-08,322.249,1.99052e-16,0.0,1.52892,0.235577,49.249000000000024
-0.136364,1.18936e-08,322.23,1.99047e-16,0.0,1.48911,0.232938,49.23000000000002
-0.161616,1.21828e-08,322.206,2.00217e-16,0.0,1.44822,0.230531,49.20600000000002
-0.186869,1.25567e-08,322.178,2.02838e-16,0.0,1.40599,0.228408,49.178
-0.212121,1.27005e-08,322.168,2.01796e-16,0.0,1.36169,0.226303,49.168000000000006
-0.237374,1.25834e-08,322.175,1.9687e-16,0.0,1.31276,0.224116,49.17500000000001
-0.262626,1.24664e-08,322.181,1.91944e-16,0.0,1.26383,0.221929,49.18099999999998
-0.287879,1.23661e-08,322.188,1.87267e-16,0.0,1.2148,0.219764,49.18799999999999
-0.313131,1.21221e-08,322.218,1.79989e-16,0.0,1.15734,0.217564,49.21800000000002
-0.338384,1.14437e-08,322.274,1.67031e-16,0.0,1.09312,0.214979,49.274
-0.363636,1.07653e-08,322.331,1.54073e-16,0.0,1.0289,0.212393,49.33100000000002
-0.388889,1.0087e-08,322.387,1.41116e-16,0.0,0.964674,0.209807,49.387
-0.414141,9.24993e-09,322.459,1.26183e-16,0.0,0.894045,0.207024,49.459
-0.439394,8.6463e-09,322.541,1.15983e-16,0.0,0.81734,0.20408,49.541
-0.464646,8.04267e-09,322.623,1.05784e-16,0.0,0.740634,0.201136,49.62299999999999
-0.489899,7.43904e-09,322.706,9.55843e-17,0.0,0.663929,0.198192,49.70600000000002
-0.515152,6.75165e-09,322.813,8.46199e-17,0.0,0.580354,0.195379,49.81299999999999
-0.540404,6.31502e-09,322.937,7.78736e-17,0.0,0.49085,0.192414,49.93700000000001
-0.565657,5.8784e-09,323.061,7.11273e-17,0.0,0.401346,0.18945,50.06099999999998
-0.590909,5.44177e-09,323.185,6.4381e-17,0.0,0.311842,0.186485,50.185
-0.616162,4.99092e-09,323.363,5.78624e-17,0.0,0.215355,0.184131,50.363
-0.641414,4.74987e-09,323.579,5.45072e-17,0.0,0.113114,0.181953,50.57900000000001
-0.666667,4.50881e-09,323.796,5.11521e-17,0.0,0.010873,0.179775,50.79599999999999
-0.691919,4.26776e-09,324.012,4.77969e-17,0.0,-0.091368,0.177598,51.012
-0.717172,4.06388e-09,324.278,4.53913e-17,0.0,-0.193901,0.175634,51.27800000000002
-0.742424,4.01679e-09,324.574,4.52376e-17,0.0,-0.296959,0.173524,51.57400000000001
-0.767677,3.96971e-09,324.871,4.50839e-17,0.0,-0.400017,0.171414,51.87099999999998
-0.792929,3.92262e-09,325.167,4.49301e-17,0.0,-0.503076,0.169304,52.16699999999997
-0.818182,3.92494e-09,325.485,4.59232e-17,0.0,-0.59714,0.16736,52.485000000000014
-0.843434,4.01789e-09,325.81,4.82858e-17,0.0,-0.685579,0.165223,52.81
-0.868687,4.11084e-09,326.135,5.06484e-17,0.0,-0.774017,0.163085,53.13499999999999
-0.893939,4.20379e-09,326.46,5.30109e-17,0.0,-0.862456,0.160948,53.45999999999998
-0.919192,4.33308e-09,326.79,5.63696e-17,0.0,-0.936143,0.159857,53.79000000000002
-0.944444,4.49731e-09,327.116,6.04181e-17,0.0,-1.00117,0.159208,54.115999999999985
-0.969697,4.66153e-09,327.442,6.44666e-17,0.0,-1.0662,0.158559,54.44200000000001
-0.994949,4.82575e-09,327.769,6.85151e-17,0.0,-1.13122,0.157909,54.769000000000005
-1.0202,5.01131e-09,328.076,7.31449e-17,0.0,-1.17256,0.159127,55.07600000000002
-1.04545,5.20578e-09,328.367,7.79656e-17,0.0,-1.20051,0.161397,55.36700000000002
-1.07071,5.40024e-09,328.659,8.27862e-17,0.0,-1.22846,0.163667,55.65899999999999
-1.09596,5.5947e-09,328.95,8.76068e-17,0.0,-1.25642,0.165937,55.94999999999999
-1.12121,5.83908e-09,329.241,9.31693e-17,0.0,-1.25457,0.170391,56.240999999999985
-1.14646,6.10169e-09,329.527,9.88983e-17,0.0,-1.23678,0.176206,56.52699999999999
-1.17172,6.3643e-09,329.813,1.04627e-16,0.0,-1.21899,0.18202,56.81299999999999
-1.19697,6.6269e-09,330.1,1.10356e-16,0.0,-1.2012,0.187834,57.10000000000002
-1.22222,7.03105e-09,330.421,1.15563e-16,0.0,-1.15291,0.195881,57.42099999999999
-1.24747,7.49325e-09,330.757,1.20281e-16,0.0,-1.08968,0.205362,57.757000000000005
-1.27273,7.95544e-09,331.094,1.25e-16,0.0,-1.02644,0.214843,58.093999999999994
-1.29798,8.41764e-09,331.43,1.29718e-16,0.0,-0.963198,0.224324,58.43000000000001
-1.32323,8.9636e-09,331.802,1.28153e-16,0.0,-0.872019,0.235213,58.80200000000002
-1.34848,9.50127e-09,332.181,1.24296e-16,0.0,-0.771688,0.247166,59.18099999999998
-1.37374,1.00389e-08,332.56,1.20438e-16,0.0,-0.671357,0.259119,59.56
-1.39899,1.05766e-08,332.939,1.1658e-16,0.0,-0.571026,0.271072,59.93900000000002
-1.42424,1.06617e-08,333.441,9.67711e-17,0.0,-0.450971,0.284324,60.440999999999974
-1.44949,1.06033e-08,333.997,7.168e-17,0.0,-0.321239,0.298389,60.997000000000014
-1.47475,1.03468e-08,334.414,4.99324e-17,0.0,-0.200087,0.240741,61.41399999999999
-1.5,1.00355e-08,334.792,2.89203e-17,0.0,-0.0812174,0.161897,61.79199999999997
