y_m,Qdot_J_kg,T_K,batteryGasNMC,Ux,Uy,Uz,T_degree
1.0,9184220.0,1196.25,0.120251,0.0,0.0270406,0.432268,923.25
0.974747,348932.0,349.835,0.00136701,0.0,0.219635,0.602278,76.83499999999998
0.949495,5011.79,295.833,3.55689e-05,0.0,0.423265,0.51764,22.833000000000027
0.924242,274.003,293.214,2.71653e-06,0.0,0.583584,0.463589,20.214
0.89899,22.5806,292.948,2.82676e-07,0.0,0.712815,0.426277,19.94799999999998
0.873737,2.20168,292.915,3.25451e-08,0.0,0.822743,0.402107,19.91500000000002
0.848485,0.234734,292.911,3.8861e-09,0.0,0.920048,0.386819,19.911
0.823232,0.0260621,292.91,4.66422e-10,0.0,1.00846,0.377002,19.910000000000025
0.79798,0.00294027,292.91,5.56127e-11,0.0,1.09015,0.370344,19.910000000000025
0.772727,0.000330294,292.909,6.50379e-12,0.0,1.16637,0.365406,19.908999999999992
0.747475,3.69579e-05,292.909,7.49301e-13,0.0,1.23793,0.36135,19.908999999999992
0.722222,4.12052e-06,292.909,8.52623e-14,0.0,1.30531,0.357705,19.908999999999992
0.69697,4.63168e-07,292.909,9.7092e-15,4.97823e-34,1.36883,0.354215,19.908999999999992
0.671717,5.6199e-08,292.909,1.18588e-15,0.0,1.42872,0.350751,19.908999999999992
0.646465,1.21958e-08,292.908,2.57534e-16,0.0,1.48511,0.347251,19.908000000000015
0.621212,7.87702e-09,292.908,1.65577e-16,0.0,1.53809,0.343691,19.908000000000015
0.59596,7.78241e-09,292.908,1.62263e-16,0.0,1.58773,0.340067,19.908000000000015
0.570707,8.14893e-09,292.908,1.68087e-16,0.0,1.63407,0.336389,19.908000000000015
0.545455,8.5822e-09,292.908,1.74816e-16,0.0,1.67715,0.332669,19.908000000000015
0.520202,9.05005e-09,292.908,1.81859e-16,0.0,1.71697,0.328922,19.908000000000015
0.494949,9.54155e-09,292.908,1.89078e-16,0.0,1.75356,0.325164,19.908000000000015
0.469697,1.00518e-08,292.907,1.96447e-16,0.0,1.78693,0.321413,19.906999999999982
0.444444,1.05757e-08,292.907,2.0392e-16,0.0,1.8171,0.31768,19.906999999999982
0.419192,1.11091e-08,292.907,2.11451e-16,7.755799999999999e-36,1.84407,0.313978,19.906999999999982
0.393939,1.16598e-08,292.907,2.19201e-16,0.0,1.86786,0.310321,19.906999999999982
0.368687,1.22223e-08,292.907,2.27061e-16,0.0,1.88848,0.306717,19.906999999999982
0.343434,1.27949e-08,292.907,2.34983e-16,0.0,1.90595,0.303177,19.906999999999982
0.318182,1.33776e-08,292.907,2.42947e-16,0.0,1.92029,0.299708,19.906999999999982
0.292929,1.39708e-08,292.907,2.50932e-16,0.0,1.9315,0.296315,19.906999999999982
0.267677,1.45762e-08,292.907,2.58941e-16,0.0,1.93962,0.293003,19.906999999999982
0.242424,1.51962e-08,292.907,2.66986e-16,0.0,1.94467,0.289775,19.906999999999982
0.217172,1.58287e-08,292.907,2.75003e-16,0.0,1.94667,0.286633,19.906999999999982
0.191919,1.64787e-08,292.907,2.83044e-16,0.0,1.94566,0.283578,19.906999999999982
0.166667,1.71613e-08,292.907,2.91329e-16,0.0,1.94166,0.280607,19.906999999999982
0.141414,1.78709e-08,292.906,2.99713e-16,0.0,1.93473,0.277716,19.906000000000006
0.116162,1.863e-08,292.906,3.08521e-16,0.0,1.92492,0.274901,19.906000000000006
0.0909091,1.9466e-08,292.906,3.18141e-16,0.0,1.9123,0.272149,19.906000000000006
0.0656566,2.0404e-08,292.906,3.28902e-16,0.0,1.89699,0.269446,19.906000000000006
0.040404,2.15049e-08,292.906,3.41686e-16,0.0,1.87907,0.266791,19.906000000000006
0.0151515,2.29144e-08,292.906,3.58638e-16,0.0,1.85769,0.264357,19.906000000000006
-0.010101,2.42764e-08,292.906,3.74476e-16,0.0,1.832,0.262322,19.906000000000006
-0.0353535,2.57039e-08,292.906,3.91238e-16,0.0,1.80329,0.260436,19.906000000000006
-0.0606061,2.71487e-08,292.906,4.0734e-16,0.0,1.7731,0.258826,19.906000000000006
-0.0858586,2.8423e-08,292.906,4.20361e-16,0.0,1.74165,0.256987,19.906000000000006
-0.111111,2.98501e-08,292.906,4.3295e-16,0.0,1.70451,0.254714,19.906000000000006
-0.136364,3.12095e-08,292.906,4.4477e-16,0.0,1.6622,0.252513,19.906000000000006
-0.161616,3.27355e-08,292.906,4.58782e-16,0.0,1.61897,0.2505,19.906000000000006
-0.186869,3.44674e-08,292.906,4.755e-16,0.0,1.57461,0.248721,19.906000000000006
-0.212121,3.53845e-08,292.906,4.80652e-16,0.0,1.52814,0.246864,19.906000000000006
-0.237374,3.5274e-08,292.906,4.72323e-16,0.0,1.47689,0.244804,19.906000000000006
-0.262626,3.51635e-08,292.906,4.63994e-16,0.0,1.42564,0.242744,19.906000000000006
-0.287879,3.51235e-08,292.907,4.56576e-16,0.0,1.37428,0.240704,19.906999999999982
-0.313131,3.47505e-08,292.907,4.4313e-16,0.0,1.31417,0.238541,19.906999999999982
-0.338384,3.26252e-08,292.907,4.09565e-16,0.0,1.24698,0.235849,19.906999999999982
-0.363636,3.04999e-08,292.907,3.75999e-16,0.0,1.17979,0.233157,19.906999999999982
-0.388889,2.83747e-08,292.907,3.42433e-16,0.0,1.1126,0.230466,19.906999999999982
-0.414141,2.55553e-08,292.907,3.00424e-16,0.0,1.03876,0.227471,19.906999999999982
-0.439394,2.35014e-08,292.907,2.723e-16,0.0,0.958447,0.224096,19.906999999999982
-0.464646,2.14474e-08,292.907,2.44176e-16,0.0,0.87813,0.22072,19.906999999999982
-0.489899,1.93935e-08,292.907,2.16052e-16,0.0,0.797813,0.217345,19.906999999999982
-0.515152,1.68419e-08,292.907,1.82688e-16,0.0,0.711395,0.214071,19.906999999999982
-0.540404,1.51965e-08,292.907,1.62622e-16,0.0,0.619464,0.210466,19.906999999999982
-0.565657,1.35511e-08,292.907,1.42557e-16,0.0,0.527532,0.206861,19.906999999999982
-0.590909,1.19057e-08,292.907,1.22491e-16,0.0,0.4356,0.203256,19.906999999999982
-0.616162,9.93177e-09,292.907,9.9581e-17,0.0,0.334657,0.199595,19.906999999999982
-0.641414,8.70963e-09,292.907,8.64884e-17,0.0,0.226144,0.195585,19.906999999999982
-0.666667,7.4875e-09,292.907,7.33958e-17,0.0,0.11763,0.191575,19.906999999999982
-0.691919,6.26536e-09,292.907,6.03032e-17,0.0,0.00911668,0.187565,19.906999999999982
-0.717172,4.91758e-09,292.907,4.64765e-17,0.0,-0.100947,0.182707,19.906999999999982
-0.742424,4.18254e-09,292.907,3.95364e-17,0.0,-0.212726,0.17717,19.906999999999982
-0.767677,3.44749e-09,292.907,3.25962e-17,0.0,-0.324504,0.171633,19.906999999999982
-0.792929,2.71244e-09,292.907,2.56561e-17,0.0,-0.436283,0.166096,19.906999999999982
-0.818182,2.01054e-09,292.907,1.91597e-17,0.0,-0.537284,0.160638,19.906999999999982
-0.843434,1.72718e-09,292.907,1.66738e-17,0.0,-0.632001,0.154996,19.906999999999982
-0.868687,1.44382e-09,292.907,1.41879e-17,0.0,-0.726717,0.149354,19.906999999999982
-0.893939,1.16046e-09,292.907,1.17021e-17,0.0,-0.821434,0.143711,19.906999999999982
-0.919192,8.98804e-10,292.907,9.38917e-18,0.0,-0.902562,0.139458,19.906999999999982
-0.944444,7.87225e-10,292.907,8.384520000000001e-18,0.0,-0.976099,0.135713,19.906999999999982
-0.969697,6.75645e-10,292.907,7.379870000000001e-18,0.0,-1.04964,0.131967,19.906999999999982
-0.994949,5.64066e-10,292.907,6.3752300000000006e-18,0.0,-1.12317,0.128222,19.906999999999982
-1.0202,4.62708e-10,292.907,5.4382400000000006e-18,0.0,-1.17359,0.126686,19.906999999999982
-1.04545,4.14007e-10,292.907,4.96482e-18,0.0,-1.21109,0.126362,19.906999999999982
-1.07071,3.65306e-10,292.907,4.4914e-18,0.0,-1.24859,0.126037,19.906999999999982
-1.09596,3.16605e-10,292.907,4.01799e-18,0.0,-1.2861,0.125713,19.906999999999982
-1.12121,2.72107e-10,292.907,3.56218e-18,0.0,-1.29272,0.128718,19.906999999999982
-1.14646,2.47504e-10,292.907,3.2875e-18,0.0,-1.28287,0.133696,19.906999999999982
-1.17172,2.22902e-10,292.907,3.01282e-18,0.0,-1.27301,0.138673,19.906999999999982
-1.19697,1.983e-10,292.907,2.7381500000000003e-18,0.0,-1.26316,0.143651,19.906999999999982
-1.22222,1.75749e-10,292.907,2.4507900000000003e-18,0.0,-1.21932,0.151839,19.906999999999982
-1.24747,1.61547e-10,292.907,2.2397400000000002e-18,0.0,-1.15858,0.161895,19.906999999999982
-1.27273,1.47345e-10,292.907,2.02869e-18,0.0,-1.09783,0.171952,19.906999999999982
-1.29798,1.33143e-10,292.907,1.81765e-18,0.0,-1.03709,0.182008,19.906999999999982
-1.32323,1.19019e-10,292.907,1.54664e-18,0.0,-0.943819,0.19401,19.906999999999982
-1.34848,1.11041e-10,292.908,1.3555100000000002e-18,0.0,-0.839048,0.207093,19.908000000000015
-1.37374,1.03063e-10,292.908,1.16438e-18,0.0,-0.734277,0.220176,19.908000000000015
-1.39899,9.50851e-11,292.908,9.73248e-19,0.0,-0.629506,0.23326,19.908000000000015
-1.42424,8.58723e-11,292.908,7.45272e-19,0.0,-0.498988,0.24951,19.908000000000015
-1.44949,7.65946e-11,292.908,5.15371e-19,0.0,-0.356522,0.267065,19.908000000000015
-1.47475,6.95811e-11,292.909,3.51663e-19,0.0,-0.221884,0.217984,19.908999999999992
-1.5,6.29252e-11,292.909,1.99068e-19,0.0,-0.0893128,0.148859,19.908999999999992
