1 	9.15965e+06 	1214.59 	0.123277 	0 	0.0265116 	0.421424
0.974747 	355017 	369.507 	0.00145746 	0 	0.221196 	0.596914
0.949495 	5278.02 	313.37 	3.96233e-05 	0 	0.42521 	0.512588
0.924242 	302.126 	310.693 	3.16961e-06 	0 	0.585967 	0.457972
0.89899 	26.195 	310.488 	3.47375e-07 	0 	0.715551 	0.420164
0.873737 	2.72749 	310.517 	4.2743e-08 	0 	0.825752 	0.395618
0.848485 	0.317112 	310.568 	5.56885e-09 	0 	0.92327 	0.380071
0.823232 	0.039397 	310.618 	7.48262e-10 	0 	1.01185 	0.370095
0.79798 	0.00508507 	310.664 	1.02108e-10 	0 	1.09366 	0.363357
0.772727 	0.000654709 	310.707 	1.36906e-11 	0 	1.16998 	0.358406
0.747475 	8.3405e-05 	310.747 	1.79616e-12 	0 	1.2416 	0.354388
0.722222 	1.03888e-05 	310.784 	2.28372e-13 	0 	1.30901 	0.350823
0.69697 	1.26329e-06 	310.819 	2.8136e-14 	5.01965e-34 	1.37254 	0.347451
0.671717 	1.50187e-07 	310.853 	3.3673e-15 	0 	1.43242 	0.344135
0.646465 	2.21091e-08 	310.885 	4.9618e-16 	0 	1.48877 	0.340808
0.621212 	8.85389e-09 	310.915 	1.97801e-16 	0 	1.5417 	0.337442
0.59596 	8.26339e-09 	310.945 	1.83087e-16 	0 	1.59128 	0.33403
0.570707 	9.07817e-09 	310.972 	1.98984e-16 	0 	1.63756 	0.330579
0.545455 	1.01292e-08 	310.999 	2.19257e-16 	0 	1.68055 	0.327097
0.520202 	1.12593e-08 	311.025 	2.4044e-16 	0 	1.72029 	0.323599
0.494949 	1.24688e-08 	311.05 	2.62593e-16 	0 	1.7568 	0.320097
0.469697 	1.37562e-08 	311.074 	2.85739e-16 	0 	1.79009 	0.316608
0.444444 	1.51333e-08 	311.097 	3.1016e-16 	0 	1.82018 	0.313141
0.419192 	1.66091e-08 	311.12 	3.36056e-16 	7.98595e-36 	1.84707 	0.309709
0.393939 	1.81309e-08 	311.142 	3.62362e-16 	0 	1.87079 	0.306323
0.368687 	1.97233e-08 	311.163 	3.89561e-16 	0 	1.89135 	0.302991
0.343434 	2.13951e-08 	311.183 	4.17785e-16 	0 	1.90875 	0.299723
0.318182 	2.31461e-08 	311.204 	4.46972e-16 	0 	1.92303 	0.296525
0.292929 	2.49786e-08 	311.223 	4.77089e-16 	0 	1.93419 	0.293402
0.267677 	2.68984e-08 	311.243 	5.08164e-16 	0 	1.94226 	0.290358
0.242424 	2.89124e-08 	311.262 	5.40238e-16 	0 	1.94726 	0.287396
0.217172 	3.1058e-08 	311.28 	5.73901e-16 	0 	1.94922 	0.284518
0.191919 	3.33459e-08 	311.298 	6.09212e-16 	0 	1.94817 	0.281723
0.166667 	3.57497e-08 	311.316 	6.45541e-16 	0 	1.94413 	0.279009
0.141414 	3.83615e-08 	311.334 	6.84379e-16 	0 	1.93717 	0.276373
0.116162 	4.11754e-08 	311.351 	7.25402e-16 	0 	1.92731 	0.27381
0.0909091 	4.42192e-08 	311.369 	7.68863e-16 	0 	1.91466 	0.27131
0.0656566 	4.76273e-08 	311.387 	8.16828e-16 	0 	1.8993 	0.268859
0.040404 	5.16005e-08 	311.406 	8.72361e-16 	0 	1.88132 	0.266458
0.0151515 	5.65895e-08 	311.428 	9.42471e-16 	0 	1.85985 	0.264272
-0.010101 	6.14375e-08 	311.442 	1.00838e-15 	0 	1.83403 	0.262412
-0.0353535 	6.63862e-08 	311.459 	1.07532e-15 	0 	1.80515 	0.260683
-0.0606061 	7.15176e-08 	311.476 	1.14181e-15 	0 	1.77481 	0.259224
-0.0858586 	7.61979e-08 	311.492 	1.19914e-15 	0 	1.74323 	0.257544
-0.111111 	8.1872e-08 	311.503 	1.26291e-15 	0 	1.70597 	0.255455
-0.136364 	8.72043e-08 	311.52 	1.32193e-15 	0 	1.66353 	0.253477
-0.161616 	9.31124e-08 	311.537 	1.38835e-15 	0 	1.62016 	0.251664
-0.186869 	9.97316e-08 	311.553 	1.46391e-15 	0 	1.57562 	0.250057
-0.212121 	1.03829e-07 	311.568 	1.5004e-15 	0 	1.52895 	0.248381
-0.237374 	1.04519e-07 	311.581 	1.48842e-15 	0 	1.47745 	0.246524
-0.262626 	1.05208e-07 	311.595 	1.47645e-15 	0 	1.42595 	0.244667
-0.287879 	1.06183e-07 	311.608 	1.46846e-15 	0 	1.37433 	0.242829
-0.313131 	1.06938e-07 	311.617 	1.45043e-15 	0 	1.3139 	0.240884
-0.338384 	1.00921e-07 	311.63 	1.34761e-15 	0 	1.24635 	0.2385
-0.363636 	9.49047e-08 	311.642 	1.24478e-15 	0 	1.1788 	0.236116
-0.388889 	8.88881e-08 	311.654 	1.14195e-15 	0 	1.11125 	0.233733
-0.414141 	8.03176e-08 	311.666 	1.00387e-15 	0 	1.03693 	0.231056
-0.439394 	7.41144e-08 	311.677 	9.13122e-16 	0 	0.95609 	0.228071
-0.464646 	6.79111e-08 	311.688 	8.22369e-16 	0 	0.875246 	0.225085
-0.489899 	6.17078e-08 	311.699 	7.31617e-16 	0 	0.794401 	0.2221
-0.515152 	5.34624e-08 	311.708 	6.16155e-16 	0 	0.707181 	0.219183
-0.540404 	4.83317e-08 	311.717 	5.49648e-16 	0 	0.614301 	0.215997
-0.565657 	4.32009e-08 	311.726 	4.83141e-16 	0 	0.52142 	0.212811
-0.590909 	3.80702e-08 	311.734 	4.16633e-16 	0 	0.42854 	0.209624
-0.616162 	3.14753e-08 	311.74 	3.34971e-16 	0 	0.326553 	0.206593
-0.641414 	2.76272e-08 	311.743 	2.91266e-16 	0 	0.217047 	0.203372
-0.666667 	2.37792e-08 	311.746 	2.47561e-16 	0 	0.107542 	0.200152
-0.691919 	1.99311e-08 	311.75 	2.03857e-16 	0 	-0.00196267 	0.196931
-0.717172 	1.53433e-08 	311.747 	1.53733e-16 	0 	-0.113108 	0.193118
-0.742424 	1.30267e-08 	311.742 	1.30509e-16 	0 	-0.225904 	0.188739
-0.767677 	1.07101e-08 	311.736 	1.07284e-16 	0 	-0.338701 	0.184361
-0.792929 	8.3935e-09 	311.73 	8.40594e-17 	0 	-0.451498 	0.179982
-0.818182 	5.98021e-09 	311.72 	6.02603e-17 	0 	-0.553683 	0.17549
-0.843434 	5.10113e-09 	311.707 	5.20058e-17 	0 	-0.649515 	0.170768
-0.868687 	4.22204e-09 	311.694 	4.37513e-17 	0 	-0.745347 	0.166045
-0.893939 	3.34296e-09 	311.681 	3.54968e-17 	0 	-0.841179 	0.161323
-0.919192 	2.46333e-09 	311.666 	2.71686e-17 	0 	-0.923255 	0.157794
-0.944444 	2.13541e-09 	311.651 	2.39689e-17 	0 	-0.997516 	0.154719
-0.969697 	1.8075e-09 	311.636 	2.07692e-17 	0 	-1.07178 	0.151645
-0.994949 	1.47958e-09 	311.621 	1.75695e-17 	0 	-1.14604 	0.14857
-1.0202 	1.15624e-09 	311.604 	1.43307e-17 	0 	-1.19676 	0.147532
-1.04545 	1.01945e-09 	311.589 	1.28672e-17 	0 	-1.23433 	0.147578
-1.07071 	8.82667e-10 	311.573 	1.14038e-17 	0 	-1.2719 	0.147623
-1.09596 	7.4588e-10 	311.558 	9.94036e-18 	0 	-1.30947 	0.147669
-1.12121 	6.1158e-10 	311.54 	8.4357e-18 	0 	-1.31546 	0.150565
-1.14646 	5.45563e-10 	311.523 	7.6222e-18 	0 	-1.30467 	0.15516
-1.17172 	4.79546e-10 	311.505 	6.8087e-18 	0 	-1.29388 	0.159754
-1.19697 	4.13529e-10 	311.488 	5.99519e-18 	0 	-1.2831 	0.164349
-1.22222 	3.49055e-10 	311.465 	5.12977e-18 	0 	-1.23779 	0.17174
-1.24747 	3.12525e-10 	311.44 	4.57386e-18 	0 	-1.17546 	0.180784
-1.27273 	2.75995e-10 	311.415 	4.01794e-18 	0 	-1.11314 	0.189828
-1.29798 	2.39465e-10 	311.39 	3.46203e-18 	0 	-1.05081 	0.198872
-1.32323 	1.98567e-10 	311.359 	2.74576e-18 	0 	-0.955554 	0.209685
-1.34848 	1.78125e-10 	311.325 	2.33038e-18 	0 	-0.848949 	0.221505
-1.37374 	1.57683e-10 	311.291 	1.915e-18 	0 	-0.742344 	0.233326
-1.39899 	1.37241e-10 	311.257 	1.49962e-18 	0 	-0.635739 	0.245147
-1.42424 	1.17056e-10 	311.202 	1.09414e-18 	0 	-0.503429 	0.259683
-1.44949 	9.80533e-11 	311.141 	7.17049e-19 	0 	-0.359155 	0.275369
-1.47475 	8.50194e-11 	311.092 	4.70589e-19 	0 	-0.22329 	0.223657
-1.5 	7.29093e-11 	311.048 	2.4515e-19 	0 	-0.089653 	0.151763
